
  ___ ___ ___ _ _ _  
 |   |   |_  | | | | 
 | | | | | . | | | | 
 |__ |  _|___|_____|  21.6.0
 |___|_|             

User:   singhk93@c125.curta.zedat.fu-berlin.de
Date:   Thu Mar 17 14:21:55 2022
Arch:   x86_64
Pid:    76860
Python: 3.9.5
gpaw:   /trinity/shared/easybuild/software/GPAW/21.6.0-foss-2021a/lib/python3.9/site-packages/gpaw
_gpaw:  /trinity/shared/easybuild/software/GPAW/21.6.0-foss-2021a/lib/python3.9/site-packages/
        _gpaw.cpython-39-x86_64-linux-gnu.so
ase:    /trinity/shared/easybuild/software/ASE/3.22.0-foss-2021a/lib/python3.9/site-packages/ase (version 3.22.0)
numpy:  /trinity/shared/easybuild/software/SciPy-bundle/2021.05-foss-2021a/lib/python3.9/site-packages/numpy (version 1.20.3)
scipy:  /trinity/shared/easybuild/software/SciPy-bundle/2021.05-foss-2021a/lib/python3.9/site-packages/scipy (version 1.6.3)
libxc:  5.1.5
units:  Angstrom and eV
cores: 4
OpenMP: False
OMP_NUM_THREADS: 1

Input parameters:
  charge: -1
  convergence: {energy: 0.001}
  eigensolver: {name: dav,
                niter: 3}
  h: 0.2
  mixer: {backend: pulay,
          beta: 0.02,
          method: difference,
          nmaxold: 3,
          weight: 100}
  occupations: {fixmagmom: True,
                name: fermi-dirac,
                width: 0.05}
  setups: {3: fch1s}
  spinpol: True
  xc: PBE

System changes: positions, numbers, cell, pbc, initial_charges, initial_magmoms 

Initialize ...

H-setup:
  name: Hydrogen
  id: d65de229564ff8ea4db303e23b6d1ecf
  Z: 1.0
  valence: 1
  core: 0
  charge: 0.0
  file: /trinity/shared/easybuild/software/GPAW-setups/0.9.20000/H.PBE.gz
  compensation charges: gauss, rc=0.15, lmax=2
  cutoffs: 0.85(filt), 0.53(core),
  valence states:
                energy  radius
    1s(1.00)    -6.494   0.476
    *s          20.717   0.476
    *p           0.000   0.476

  Using partial waves for H as LCAO basis

C-setup:
  name: Carbon
  id: 4aa54d4b901d75f77cc0ea3eec22967b
  Z: 6.0
  valence: 4
  core: 2
  charge: 0.0
  file: /trinity/shared/easybuild/software/GPAW-setups/0.9.20000/C.PBE.gz
  compensation charges: gauss, rc=0.20, lmax=2
  cutoffs: 1.14(filt), 1.14(core),
  valence states:
                energy  radius
    2s(2.00)   -13.751   0.635
    2p(2.00)    -5.284   0.635
    *s          13.461   0.635
    *p          21.927   0.635
    *d           0.000   0.635

  Using partial waves for C as LCAO basis

C-setup (1.0 core hole):
  name: Carbon
  id: c050d65acf0e07bc923b5bd334fffffc
  Z: 6.0
  valence: 4
  core: 1.0
  charge: 1.0
  file: ./C.fch1s.PBE
  compensation charges: gauss, rc=0.20, lmax=2
  cutoffs: 1.14(filt), 1.01(core),
  valence states:
                energy  radius
    2s(2.00)   -29.911   0.635
    2p(2.00)   -21.336   0.635
    *s          -2.700   0.635
    *p           5.875   0.635
    *d           0.000   0.635

  Using partial waves for C as LCAO basis

O-setup:
  name: Oxygen
  id: 32ecd46bf208036f09c70b0ec9a88b78
  Z: 8.0
  valence: 6
  core: 2
  charge: 0.0
  file: /trinity/shared/easybuild/software/GPAW-setups/0.9.20000/O.PBE.gz
  compensation charges: gauss, rc=0.21, lmax=2
  cutoffs: 1.17(filt), 0.83(core),
  valence states:
                energy  radius
    2s(2.00)   -23.961   0.688
    2p(4.00)    -9.029   0.598
    *s           3.251   0.688
    *p          18.182   0.598
    *d           0.000   0.619

  Using partial waves for O as LCAO basis

Reference energy: -3866.677624

Spin-polarized calculation.
Magnetic moment: 1.000000

Convergence criteria:
  Maximum total energy change: 0.001 eV / electron
  Maximum integral of absolute density change: 0.0001 electrons
  Maximum integral of absolute eigenstate change: 4e-08 eV^2
  Maximum number of iterations: 333

Symmetries present (total): 1

  ( 1  0  0)
  ( 0  1  0)
  ( 0  0  1)

1 k-point (Gamma)
1 k-point in the irreducible part of the Brillouin zone
       k-points in crystal coordinates                weights
   0:     0.00000000    0.00000000    0.00000000          1/1

Wave functions: Uniform real-space grid
  Kinetic energy operator: 6*3+1=19 point O(h^6) finite-difference Laplacian
  ScaLapack parameters: grid=1x1, blocksize=None
  Wavefunction extrapolation:
    Improved wavefunction reuse through dual PAW basis 

Occupation numbers: <gpaw.occupations.FixMagneticMomentOccupationNumberCalculator object at 0x2aaaf8edf730> 

Eigensolver
   Davidson(niter=3) 

Densities:
  Coarse grid: 48*48*48 grid
  Fine grid: 96*96*96 grid
  Total Charge: 0.000000 

Density mixing:
  Method: difference
  Backend: pulay
  Linear mixing parameter: 0.02
  Mixing with 3 old densities
  Damping of long wave oscillations: 100 

Hamiltonian:
  XC and Coulomb potentials evaluated on a 96*96*96 grid
  Using the PBE Exchange-Correlation functional
  Interpolation: tri-quintic (5. degree polynomial)
  Poisson solver: FastPoissonSolver using
    Stencil: 6*3+1=19 point O(h^6) finite-difference Laplacian
    FFT axes: []
    FST axes: [0, 1, 2]
 

XC parameters: PBE with 2 nearest neighbor stencil

Memory estimate:
  Process memory now: 232.83 MiB
  Calculator: 26.16 MiB
    Density: 9.63 MiB
      Arrays: 6.97 MiB
      Localized functions: 0.76 MiB
      Mixer: 1.90 MiB
    Hamiltonian: 5.24 MiB
      Arrays: 5.18 MiB
      XC: 0.00 MiB
      Poisson: 0.00 MiB
      vbar: 0.06 MiB
    Wavefunctions: 11.29 MiB
      Arrays psit_nG: 6.83 MiB
      Eigensolver: 4.39 MiB
      Projections: 0.00 MiB
      Projectors: 0.07 MiB

Total number of cores used: 4
Domain decomposition: 2 x 2 x 1

Number of atoms: 9
Number of atomic orbitals: 18
Number of bands in calculation: 18
Number of valence electrons: 21
Bands to converge: occupied

... initialized

Initializing position-dependent things.

Density initialized from atomic densities
Creating initial wave functions:
  18 bands from LCAO basis set

       .------------------------.  
      /|                        |  
     / |                        |  
    /  |                        |  
   /   |                        |  
  /    |                        |  
 *     |                        |  
 |     |          H             |  
 |     |                        |  
 |     |     HH   CHH           |  
 |     |                        |  
 |     |      H                 |  
 |     .------------------------.  
 |    /                        /   
 |   /                        /    
 |  /                        /     
 | /                        /      
 |/                        /       
 *------------------------*        

Positions:
   0 H      3.336235    5.267875    5.052160    ( 0.0000,  0.0000,  1.0000)
   1 C      4.203407    4.605374    4.970163    ( 0.0000,  0.0000,  0.0000)
   2 H      4.150786    3.880917    5.789674    ( 0.0000,  0.0000,  0.0000)
   3 C      5.501353    5.393941    5.030933    ( 0.0000,  0.0000,  0.0000)
   4 O      6.648608    4.561713    4.852266    ( 0.0000,  0.0000,  0.0000)
   5 H      5.566991    5.954928    5.974180    ( 0.0000,  0.0000,  0.0000)
   6 H      6.663765    3.935029    5.594947    ( 0.0000,  0.0000,  0.0000)
   7 H      5.547987    6.119083    4.215356    ( 0.0000,  0.0000,  0.0000)
   8 H      4.142623    4.060040    4.025820    ( 0.0000,  0.0000,  0.0000)

Unit cell:
           periodic     x           y           z      points  spacing
  1. axis:    no    10.000000    0.000000    0.000000    48     0.2083
  2. axis:    no     0.000000   10.000000    0.000000    48     0.2083
  3. axis:    no     0.000000    0.000000   10.000000    48     0.2083

  Lengths:  10.000000  10.000000  10.000000
  Angles:   90.000000  90.000000  90.000000

Effective grid spacing dv^(1/3) = 0.2083

                     log10-error:    total        iterations:
           time      wfs    density  energy       poisson  magmom
iter:   1  14:22:18                 -62.633900    1        +1.0477
iter:   2  14:22:32  -0.06  -0.72   -63.977290    1        +1.0143
iter:   3  14:22:50  -0.13  -0.73   -65.942725    1        +0.9997
iter:   4  14:23:07  -0.62  -0.78   -64.647914    1        +1.0021
iter:   5  14:23:25  -0.72  -0.89   -64.257803    1        +1.0002
iter:   6  14:23:44  -1.01  -0.99   -63.897386    1        +1.0000
iter:   7  14:24:01  -1.09  -1.13   -63.666162    1        +1.0000
iter:   8  14:24:20  -1.48  -1.31   -63.408864    1        +1.0000
iter:   9  14:24:36  -1.62  -1.31   -62.392691    1        +1.0000
iter:  10  14:24:54  -1.12  -1.27   -60.461268    1        +1.0000
iter:  11  14:25:10  -1.93  -1.19   -60.118814    1        +1.0000
iter:  12  14:25:29  -1.96  -1.23   -60.255818    1        +1.0000
iter:  13  14:25:45  -2.30  -1.28   -60.496844    1        +1.0000
iter:  14  14:26:01  -2.15  -1.32   -60.438915    1        +1.0000
iter:  15  14:26:18  -1.65  -1.36   -61.636491    1        +1.0000
iter:  16  14:26:35  -1.28  -1.41   -63.271426    1        +1.0000
iter:  17  14:26:52  -2.01  -1.44   -63.321546    1        +1.0000
iter:  18  14:27:09  -2.62  -1.44   -63.283679    1        +1.0000
iter:  19  14:27:26  -2.42  -1.44   -63.159883    1        +1.0000
iter:  20  14:27:41  -2.41  -1.45   -63.172264    1        +1.0000
iter:  21  14:27:59  -3.01  -1.48   -63.173614    1        +1.0000
iter:  22  14:28:15  -2.34  -1.48   -63.549441    1        +1.0000
iter:  23  14:28:33  -2.05  -1.66   -63.915649    1        +1.0000
iter:  24  14:28:50  -2.27  -1.77   -63.888509    1        +1.0000
iter:  25  14:29:07  -1.74  -1.83   -63.309676    1        +1.0000
iter:  26  14:29:25  -1.75  -1.73   -64.162766    1        +1.0000
iter:  27  14:29:40  -2.33  -1.99   -63.890101    1        +1.0000
iter:  28  14:29:57  -1.83  -2.02   -63.987652    1        +1.0000
iter:  29  14:30:15  -1.53  -1.86   -62.931383    1        +1.0000
iter:  30  14:30:32  -2.12  -1.63   -63.508483    1        +1.0000
iter:  31  14:30:50  -2.89  -1.83   -63.559522    1        +1.0000
iter:  32  14:31:06  -2.87  -1.89   -63.610994    1        +1.0000
iter:  33  14:31:22  -2.89  -1.95   -63.594799    1        +1.0000
iter:  34  14:31:37  -2.98  -1.97   -63.632079    1        +1.0000
iter:  35  14:31:55  -3.24  -1.99   -63.716424    1        +1.0000
iter:  36  14:32:11  -3.03  -2.01   -63.826587    1        +1.0000
iter:  37  14:32:29  -3.95  -2.09   -63.813831    1        +1.0000
iter:  38  14:32:44  -4.05  -2.08   -63.831184    1        +1.0000
iter:  39  14:33:03  -2.87  -2.10   -63.985600    1        +1.0000
iter:  40  14:33:21  -3.91  -2.32   -63.989936    1        +1.0000
iter:  41  14:33:36  -3.18  -2.34   -64.039445    1        +1.0000
iter:  42  14:33:52  -3.40  -2.39   -64.061129    1        +1.0000
iter:  43  14:34:10  -3.27  -2.53   -64.102091    1        +1.0000
iter:  44  14:34:27  -3.11  -2.71   -64.030259    1        +1.0000
iter:  45  14:34:45  -2.12  -2.66   -64.276025    1        +1.0000
iter:  46  14:35:01  -2.91  -2.70   -64.288075    1        +1.0000
iter:  47  14:35:18  -3.32  -2.61   -64.272302    1        +1.0000
iter:  48  14:35:36  -3.88  -2.54   -64.272958    1        +1.0000
iter:  49  14:35:55  -4.25  -2.54   -64.270273    1        +1.0000
iter:  50  14:36:15  -4.18  -2.57   -64.271065    1        +1.0000
iter:  51  14:36:38  -4.43  -2.62   -64.271204    1        +1.0000
iter:  52  14:36:58  -4.64  -2.71   -64.273852    1        +1.0000
iter:  53  14:37:16  -4.26  -2.72   -64.281429    1        +1.0000
iter:  54  14:37:33  -4.47  -2.73   -64.284681    1        +1.0000
iter:  55  14:37:54  -4.61  -2.74   -64.287358    1        +1.0000
iter:  56  14:38:14  -4.73  -2.75   -64.289293    1        +1.0000
iter:  57  14:38:35  -4.59  -2.84   -64.291022    1        +1.0000
iter:  58  14:38:54  -4.81  -2.95   -64.292439    1        +1.0000
iter:  59  14:39:13  -4.40  -2.97   -64.295874    1        +1.0000
iter:  60  14:39:29  -5.10  -3.04   -64.295871    1        +1.0000
iter:  61  14:39:51  -5.65  -3.05   -64.295975    1        +1.0000
iter:  62  14:40:08  -4.89  -3.09   -64.296867    1        +1.0000
iter:  63  14:40:28  -5.34  -3.32   -64.297023    1        +1.0000
iter:  64  14:40:47  -5.70  -3.35   -64.297168    1        +1.0000
iter:  65  14:41:03  -5.68  -3.37   -64.297292    1        +1.0000
iter:  66  14:41:21  -6.42  -3.36   -64.297301    1        +1.0000
iter:  67  14:41:41  -6.80  -3.37   -64.297307    1        +1.0000
iter:  68  14:42:00  -6.59  -3.37   -64.297276    1        +1.0000
iter:  69  14:42:19  -6.82  -3.35   -64.297263    1        +1.0000
iter:  70  14:42:40  -5.77  -3.35   -64.297357    1        +1.0000
iter:  71  14:42:56  -6.34  -3.76   -64.297357    1        +1.0000
iter:  72  14:43:14  -6.71  -3.77   -64.297344    1        +1.0000
iter:  73  14:43:33  -6.55  -3.76   -64.297336    1        +1.0000
iter:  74  14:43:55  -6.74  -3.74   -64.297306    1        +1.0000
iter:  75  14:44:12  -6.76  -3.72   -64.297263    1        +1.0000
iter:  76  14:44:31  -6.76  -3.69   -64.297286    1        +1.0000
iter:  77  14:44:48  -7.43  -3.79   -64.297294    1        +1.0000
iter:  78  14:45:06  -6.93  -3.79   -64.297314    1        +1.0000
iter:  79  14:45:26  -6.70  -3.80   -64.297331    1        +1.0000
iter:  80  14:45:47  -6.99  -3.95   -64.297347    1        +1.0000
iter:  81  14:46:09  -7.33  -4.06   -64.297352    1        +1.0000
iter:  82  14:46:31  -7.42  -4.09   -64.297358    1        +1.0000

Converged after 82 iterations.

Dipole moment: (-0.531738, -0.047147, -0.335038) |e|*Ang

Total magnetic moment: (0.000000, 0.000000, 1.000000)
Local magnetic moments:
   0 H  ( 0.000000,  0.000000,  0.001935)
   1 C  ( 0.000000,  0.000000,  0.023543)
   2 H  ( 0.000000,  0.000000,  0.000043)
   3 C  ( 0.000000,  0.000000, -0.080709)
   4 O  ( 0.000000,  0.000000,  0.059105)
   5 H  ( 0.000000,  0.000000,  0.023991)
   6 H  ( 0.000000,  0.000000,  0.006420)
   7 H  ( 0.000000,  0.000000,  0.020488)
   8 H  ( 0.000000,  0.000000, -0.000433)

Energy contributions relative to reference atoms: (reference = -3866.677624)

Kinetic:        +54.062254
Potential:      -64.813278
External:        +0.000000
XC:             -54.691221
Entropy (-ST):   -0.000350
Local:           +1.145063
--------------------------
Free energy:    -64.297533
Extrapolated:   -64.297358

Spin contamination: 0.125521 electrons
                   Up                     Down
 Band  Eigenvalues  Occupancy  Eigenvalues  Occupancy
    0    -27.83043    1.00000    -27.96497    1.00000
    1    -21.64443    1.00000    -21.99829    1.00000
    2    -18.08670    1.00000    -18.24244    1.00000
    3    -15.42048    1.00000    -15.63811    1.00000
    4    -14.35610    1.00000    -14.62616    1.00000
    5    -13.38969    1.00000    -13.68563    1.00000
    6    -11.16116    1.00000    -11.12987    1.00000
    7    -10.73558    1.00000    -10.70297    1.00000
    8    -10.16073    1.00000    -10.14839    1.00000
    9     -8.21448    1.00000     -8.14412    1.00000
   10     -1.91449    0.99961     -1.37865    0.00000
   11     -1.13057    0.00039     -0.98336    0.00000
   12     -0.86852    0.00000     -0.45409    0.00000
   13     -0.42384    0.00000     -0.10556    0.00000
   14      0.20644    0.00000      0.37187    0.00000
   15      0.62880    0.00000      1.03577    0.00000
   16      0.85299    0.00000      1.14943    0.00000
   17      1.07011    0.00000      1.44856    0.00000

Fermi levels: -1.52266, -5.88911

Timing:                              incl.     excl.
-----------------------------------------------------------
Hamiltonian:                         1.813     0.001   0.0% |
 Atomic:                             0.094     0.007   0.0% |
  XC Correction:                     0.087     0.087   0.0% |
 Calculate atomic Hamiltonians:      0.001     0.001   0.0% |
 Communicate:                        0.000     0.000   0.0% |
 Hartree integrate/restrict:         0.005     0.005   0.0% |
 Initialize Hamiltonian:             0.000     0.000   0.0% |
 Poisson:                            0.086     0.013   0.0% |
  Communicate from 1D:               0.012     0.012   0.0% |
  Communicate from 2D:               0.011     0.011   0.0% |
  Communicate to 1D:                 0.021     0.021   0.0% |
  Communicate to 2D:                 0.020     0.020   0.0% |
  FFT 1D:                            0.002     0.002   0.0% |
  FFT 2D:                            0.005     0.005   0.0% |
 XC 3D grid:                         1.625     1.625   0.1% |
 vbar:                               0.001     0.001   0.0% |
LCAO initialization:                 1.287     0.186   0.0% |
 LCAO eigensolver:                   0.945     0.000   0.0% |
  Calculate projections:             0.000     0.000   0.0% |
  DenseAtomicCorrection:             0.000     0.000   0.0% |
  Distribute overlap matrix:         0.003     0.003   0.0% |
  Orbital Layouts:                   0.935     0.935   0.1% |
  Potential matrix:                  0.007     0.007   0.0% |
 LCAO to grid:                       0.015     0.015   0.0% |
 Set positions (LCAO WFS):           0.141     0.030   0.0% |
  Basic WFS set positions:           0.000     0.000   0.0% |
  Basis functions set positions:     0.000     0.000   0.0% |
  P tci:                             0.005     0.005   0.0% |
  ST tci:                            0.001     0.001   0.0% |
  mktci:                             0.104     0.104   0.0% |
SCF-cycle:                        1470.866     1.490   0.1% |
 Davidson:                        1201.351   569.352  38.4% |--------------|
  Apply hamiltonian:                25.256    25.256   1.7% ||
  Subspace diag:                    83.740     0.022   0.0% |
   calc_h_matrix:                    4.132     0.387   0.0% |
    Apply hamiltonian:               3.745     3.745   0.3% |
   diagonalize:                     38.796    38.796   2.6% ||
   rotate_psi:                      40.791    40.791   2.8% ||
  calc. matrices:                  102.411    95.911   6.5% |--|
   Apply hamiltonian:                6.500     6.500   0.4% |
  diagonalize:                     327.673   327.673  22.1% |--------|
  rotate_psi:                       92.920    92.920   6.3% |--|
 Density:                           95.654     0.002   0.0% |
  Atomic density matrices:           0.248     0.248   0.0% |
  Mix:                              95.081    95.081   6.4% |--|
  Multipole moments:                 0.175     0.175   0.0% |
  Pseudo density:                    0.148     0.146   0.0% |
   Symmetrize density:               0.002     0.002   0.0% |
 Hamiltonian:                      171.965     0.050   0.0% |
  Atomic:                           10.328     0.992   0.1% |
   XC Correction:                    9.336     9.336   0.6% |
  Calculate atomic Hamiltonians:     0.075     0.075   0.0% |
  Communicate:                       0.006     0.006   0.0% |
  Hartree integrate/restrict:        0.508     0.508   0.0% |
  Poisson:                           7.081     0.863   0.1% |
   Communicate from 1D:              1.153     1.153   0.1% |
   Communicate from 2D:              1.160     1.160   0.1% |
   Communicate to 1D:                1.604     1.604   0.1% |
   Communicate to 2D:                1.408     1.408   0.1% |
   FFT 1D:                           0.270     0.270   0.0% |
   FFT 2D:                           0.622     0.622   0.0% |
  XC 3D grid:                      153.817   153.817  10.4% |---|
  vbar:                              0.102     0.102   0.0% |
 Orthonormalize:                     0.405     0.000   0.0% |
  calc_s_matrix:                     0.003     0.003   0.0% |
  inverse-cholesky:                  0.190     0.190   0.0% |
  projections:                       0.017     0.017   0.0% |
  rotate_psi_s:                      0.194     0.194   0.0% |
Set symmetry:                        0.001     0.001   0.0% |
Other:                               8.462     8.462   0.6% |
-----------------------------------------------------------
Total:                                      1482.429 100.0%

Memory usage: 280.21 MiB
Date: Thu Mar 17 14:46:37 2022
