
  ___ ___ ___ _ _ _  
 |   |   |_  | | | | 
 | | | | | . | | | | 
 |__ |  _|___|_____|  21.6.0
 |___|_|             

User:   singhk93@c129.curta.zedat.fu-berlin.de
Date:   Thu Mar 17 14:22:04 2022
Arch:   x86_64
Pid:    53192
Python: 3.9.5
gpaw:   /trinity/shared/easybuild/software/GPAW/21.6.0-foss-2021a/lib/python3.9/site-packages/gpaw
_gpaw:  /trinity/shared/easybuild/software/GPAW/21.6.0-foss-2021a/lib/python3.9/site-packages/
        _gpaw.cpython-39-x86_64-linux-gnu.so
ase:    /trinity/shared/easybuild/software/ASE/3.22.0-foss-2021a/lib/python3.9/site-packages/ase (version 3.22.0)
numpy:  /trinity/shared/easybuild/software/SciPy-bundle/2021.05-foss-2021a/lib/python3.9/site-packages/numpy (version 1.20.3)
scipy:  /trinity/shared/easybuild/software/SciPy-bundle/2021.05-foss-2021a/lib/python3.9/site-packages/scipy (version 1.6.3)
libxc:  5.1.5
units:  Angstrom and eV
cores: 4
OpenMP: False
OMP_NUM_THREADS: 1

Input parameters:
  charge: -1
  convergence: {energy: 0.001}
  eigensolver: {name: dav,
                niter: 3}
  h: 0.2
  mixer: {backend: pulay,
          beta: 0.02,
          method: difference,
          nmaxold: 3,
          weight: 100}
  occupations: {fixmagmom: True,
                name: fermi-dirac,
                width: 0.05}
  setups: {7: fch1s}
  spinpol: True
  xc: PBE

System changes: positions, numbers, cell, pbc, initial_charges, initial_magmoms 

Initialize ...

C-setup:
  name: Carbon
  id: 4aa54d4b901d75f77cc0ea3eec22967b
  Z: 6.0
  valence: 4
  core: 2
  charge: 0.0
  file: /trinity/shared/easybuild/software/GPAW-setups/0.9.20000/C.PBE.gz
  compensation charges: gauss, rc=0.20, lmax=2
  cutoffs: 1.14(filt), 1.14(core),
  valence states:
                energy  radius
    2s(2.00)   -13.751   0.635
    2p(2.00)    -5.284   0.635
    *s          13.461   0.635
    *p          21.927   0.635
    *d           0.000   0.635

  Using partial waves for C as LCAO basis

H-setup:
  name: Hydrogen
  id: d65de229564ff8ea4db303e23b6d1ecf
  Z: 1.0
  valence: 1
  core: 0
  charge: 0.0
  file: /trinity/shared/easybuild/software/GPAW-setups/0.9.20000/H.PBE.gz
  compensation charges: gauss, rc=0.15, lmax=2
  cutoffs: 0.85(filt), 0.53(core),
  valence states:
                energy  radius
    1s(1.00)    -6.494   0.476
    *s          20.717   0.476
    *p           0.000   0.476

  Using partial waves for H as LCAO basis

C-setup (1.0 core hole):
  name: Carbon
  id: c050d65acf0e07bc923b5bd334fffffc
  Z: 6.0
  valence: 4
  core: 1.0
  charge: 1.0
  file: ./C.fch1s.PBE
  compensation charges: gauss, rc=0.20, lmax=2
  cutoffs: 1.14(filt), 1.01(core),
  valence states:
                energy  radius
    2s(2.00)   -29.911   0.635
    2p(2.00)   -21.336   0.635
    *s          -2.700   0.635
    *p           5.875   0.635
    *d           0.000   0.635

  Using partial waves for C as LCAO basis

Reference energy: -2878.433763

Spin-polarized calculation.
Magnetic moment: 1.000000

Convergence criteria:
  Maximum total energy change: 0.001 eV / electron
  Maximum integral of absolute density change: 0.0001 electrons
  Maximum integral of absolute eigenstate change: 4e-08 eV^2
  Maximum number of iterations: 333

Symmetries present (total): 1

  ( 1  0  0)
  ( 0  1  0)
  ( 0  0  1)

1 k-point (Gamma)
1 k-point in the irreducible part of the Brillouin zone
       k-points in crystal coordinates                weights
   0:     0.00000000    0.00000000    0.00000000          1/1

Wave functions: Uniform real-space grid
  Kinetic energy operator: 6*3+1=19 point O(h^6) finite-difference Laplacian
  ScaLapack parameters: grid=1x1, blocksize=None
  Wavefunction extrapolation:
    Improved wavefunction reuse through dual PAW basis 

Occupation numbers: <gpaw.occupations.FixMagneticMomentOccupationNumberCalculator object at 0x2aaaf8ed5e80> 

Eigensolver
   Davidson(niter=3) 

Densities:
  Coarse grid: 48*48*48 grid
  Fine grid: 96*96*96 grid
  Total Charge: 0.000000 

Density mixing:
  Method: difference
  Backend: pulay
  Linear mixing parameter: 0.02
  Mixing with 3 old densities
  Damping of long wave oscillations: 100 

Hamiltonian:
  XC and Coulomb potentials evaluated on a 96*96*96 grid
  Using the PBE Exchange-Correlation functional
  Interpolation: tri-quintic (5. degree polynomial)
  Poisson solver: FastPoissonSolver using
    Stencil: 6*3+1=19 point O(h^6) finite-difference Laplacian
    FFT axes: []
    FST axes: [0, 1, 2]
 

XC parameters: PBE with 2 nearest neighbor stencil

Memory estimate:
  Process memory now: 226.78 MiB
  Calculator: 26.25 MiB
    Density: 9.71 MiB
      Arrays: 6.97 MiB
      Localized functions: 0.84 MiB
      Mixer: 1.90 MiB
    Hamiltonian: 5.25 MiB
      Arrays: 5.18 MiB
      XC: 0.00 MiB
      Poisson: 0.00 MiB
      vbar: 0.07 MiB
    Wavefunctions: 11.29 MiB
      Arrays psit_nG: 6.83 MiB
      Eigensolver: 4.39 MiB
      Projections: 0.01 MiB
      Projectors: 0.07 MiB

Total number of cores used: 4
Domain decomposition: 2 x 2 x 1

Number of atoms: 11
Number of atomic orbitals: 20
Number of bands in calculation: 18
Number of valence electrons: 21
Bands to converge: occupied

... initialized

Initializing position-dependent things.

Density initialized from atomic densities
Creating initial wave functions:
  18 bands from LCAO basis set

       .------------------------.  
      /|                        |  
     / |                        |  
    /  |                        |  
   /   |                        |  
  /    |                        |  
 *     |                        |  
 |     |         H              |  
 |     |     H HC               |  
 |     |        CHCHH           |  
 |     |       H                |  
 |     |        H               |  
 |     .------------------------.  
 |    /                        /   
 |   /                        /    
 |  /                        /     
 | /                        /      
 |/                        /       
 *------------------------*        

Positions:
   0 C      5.268056    5.826166    4.401038    ( 0.0000,  0.0000,  1.0000)
   1 H      6.384977    5.826166    4.401038    ( 0.0000,  0.0000,  0.0000)
   2 H      4.915248    6.885587    4.401038    ( 0.0000,  0.0000,  0.0000)
   3 H      4.918749    5.337857    3.459220    ( 0.0000,  0.0000,  0.0000)
   4 C      4.736845    5.094752    5.607062    ( 0.0000,  0.0000,  0.0000)
   5 H      5.077152    5.616262    6.540780    ( 0.0000,  0.0000,  0.0000)
   6 H      3.615023    5.129252    5.601462    ( 0.0000,  0.0000,  0.0000)
   7 C      5.195154    3.659324    5.637763    ( 0.0000,  0.0000,  0.0000)
   8 H      4.844047    3.114413    4.728245    ( 0.0000,  0.0000,  0.0000)
   9 H      6.310176    3.602722    5.670163    ( 0.0000,  0.0000,  0.0000)
  10 H      4.789246    3.139714    6.538980    ( 0.0000,  0.0000,  0.0000)

Unit cell:
           periodic     x           y           z      points  spacing
  1. axis:    no    10.000000    0.000000    0.000000    48     0.2083
  2. axis:    no     0.000000   10.000000    0.000000    48     0.2083
  3. axis:    no     0.000000    0.000000   10.000000    48     0.2083

  Lengths:  10.000000  10.000000  10.000000
  Angles:   90.000000  90.000000  90.000000

Effective grid spacing dv^(1/3) = 0.2083

                     log10-error:    total        iterations:
           time      wfs    density  energy       poisson  magmom
iter:   1  14:22:26                 -79.881371    1        +1.0457
iter:   2  14:22:42  -0.40  -0.64   -79.863035    1        +1.0137
iter:   3  14:22:58  -0.66  -0.64   -76.710127    1        +0.9991
iter:   4  14:23:15  -0.48  -0.76   -75.075115    1        +1.0002
iter:   5  14:23:31  -1.05  -0.92   -75.070529    1        +0.9995
iter:   6  14:23:48  -0.68  -0.92   -75.187410    1        +1.0001
iter:   7  14:24:03  -1.15  -1.55   -74.652161    1        +1.0001
iter:   8  14:24:19  -1.61  -1.51   -74.700159    1        +1.0000
iter:   9  14:24:33  -1.88  -1.50   -74.501092    1        +1.0000
iter:  10  14:24:47  -1.97  -1.41   -74.673014    1        +1.0000
iter:  11  14:25:05  -2.07  -1.47   -74.730323    1        +1.0000
iter:  12  14:25:22  -2.74  -1.52   -74.592507    1        +1.0000
iter:  13  14:25:39  -1.99  -1.53   -74.712998    1        +1.0000
iter:  14  14:25:55  -2.16  -1.79   -74.869070    1        +1.0000
iter:  15  14:26:11  -2.51  -1.97   -74.842850    1        +1.0000
iter:  16  14:26:28  -2.61  -2.00   -74.903401    1        +1.0000
iter:  17  14:26:45  -2.41  -2.01   -74.925556    1        +1.0000
iter:  18  14:27:03  -2.94  -2.02   -74.928982    1        +1.0000
iter:  19  14:27:17  -3.20  -2.05   -74.919385    1        +1.0000
iter:  20  14:27:35  -2.82  -2.08   -74.991628    1        +1.0000
iter:  21  14:27:51  -3.15  -2.30   -75.028499    1        +1.0000
iter:  22  14:28:08  -3.22  -2.35   -75.005806    1        +1.0000
iter:  23  14:28:25  -2.39  -2.36   -75.069855    1        +1.0000
iter:  24  14:28:42  -2.31  -2.39   -74.968522    1        +1.0000
iter:  25  14:28:59  -3.31  -2.33   -75.033246    1        +1.0000
iter:  26  14:29:15  -3.52  -2.36   -75.009210    1        +1.0000
iter:  27  14:29:31  -3.82  -2.34   -74.998546    1        +1.0000
iter:  28  14:29:47  -4.36  -2.33   -74.993734    1        +1.0000
iter:  29  14:30:03  -4.70  -2.34   -74.998104    1        +1.0000
iter:  30  14:30:19  -3.23  -2.36   -75.058053    1        +1.0000
iter:  31  14:30:36  -3.39  -2.58   -75.092257    1        +1.0000
iter:  32  14:30:52  -4.08  -2.90   -75.092566    1        +1.0000
iter:  33  14:31:07  -3.26  -2.91   -75.131567    1        +1.0000
iter:  34  14:31:23  -2.90  -2.94   -75.177283    1        +1.0000
iter:  35  14:31:40  -3.31  -2.89   -75.177077    1        +1.0000
iter:  36  14:31:56  -3.75  -2.85   -75.169526    1        +1.0000
iter:  37  14:32:13  -4.64  -2.82   -75.170690    1        +1.0000
iter:  38  14:32:29  -4.84  -2.85   -75.172086    1        +1.0000
iter:  39  14:32:45  -4.81  -2.87   -75.170992    1        +1.0000
iter:  40  14:33:05  -4.40  -2.97   -75.174274    1        +1.0000
iter:  41  14:33:22  -4.91  -3.01   -75.175498    1        +1.0000
iter:  42  14:33:39  -4.11  -3.02   -75.180361    1        +1.0000
iter:  43  14:33:56  -3.99  -3.02   -75.181803    1        +1.0000
iter:  44  14:34:12  -4.33  -2.98   -75.181753    1        +1.0000
iter:  45  14:34:28  -4.68  -3.00   -75.182343    1        +1.0000
iter:  46  14:34:45  -4.31  -3.02   -75.184706    1        +1.0000
iter:  47  14:35:01  -5.19  -3.04   -75.184435    1        +1.0000
iter:  48  14:35:20  -4.96  -3.05   -75.184173    1        +1.0000
iter:  49  14:35:39  -4.53  -3.19   -75.185267    1        +1.0000
iter:  50  14:35:55  -5.46  -3.32   -75.185267    1        +1.0000
iter:  51  14:36:10  -5.95  -3.30   -75.185243    1        +1.0000
iter:  52  14:36:27  -5.78  -3.27   -75.185238    1        +1.0000
iter:  53  14:36:43  -5.68  -3.27   -75.185193    1        +1.0000
iter:  54  14:36:58  -6.15  -3.29   -75.185211    1        +1.0000
iter:  55  14:37:15  -5.70  -3.30   -75.185269    1        +1.0000
iter:  56  14:37:32  -5.95  -3.36   -75.185278    1        +1.0000
iter:  57  14:37:50  -6.42  -3.40   -75.185278    1        +1.0000
iter:  58  14:38:07  -5.83  -3.40   -75.185286    1        +1.0000
iter:  59  14:38:25  -6.49  -3.46   -75.185287    1        +1.0000
iter:  60  14:38:44  -6.87  -3.45   -75.185291    1        +1.0000
iter:  61  14:39:02  -6.35  -3.46   -75.185301    1        +1.0000
iter:  62  14:39:17  -6.82  -3.51   -75.185297    1        +1.0000
iter:  63  14:39:37  -7.35  -3.50   -75.185296    1        +1.0000
iter:  64  14:39:54  -6.76  -3.51   -75.185300    1        +1.0000
iter:  65  14:40:11  -7.57  -3.53   -75.185300    1        +1.0000
iter:  66  14:40:31  -7.04  -3.54   -75.185302    1        +1.0000
iter:  67  14:40:51  -6.95  -3.55   -75.185307    1        +1.0000
iter:  68  14:41:11  -7.43  -3.59   -75.185308    1        +1.0000
iter:  69  14:41:29  -7.14  -3.59   -75.185307    1        +1.0000
iter:  70  14:41:48  -7.26  -3.61   -75.185303    1        +1.0000
iter:  71  14:42:06  -7.81  -3.63   -75.185305    1        +1.0000
iter:  72  14:42:25  -6.63  -3.63   -75.185323    1        +1.0000
iter:  73  14:42:42  -7.34  -3.84   -75.185322    1        +1.0000
iter:  74  14:43:02  -7.90  -3.84   -75.185320    1        +1.0000
iter:  75  14:43:21  -7.23  -3.84   -75.185318    1        +1.0000
iter:  76  14:43:41  -7.32  -3.79   -75.185308    1        +1.0000
iter:  77  14:43:58  -7.30  -3.77   -75.185311    1        +1.0000
iter:  78  14:44:16  -7.83  -3.74   -75.185309    1        +1.0000
iter:  79  14:44:31  -6.96  -3.74   -75.185311    1        +1.0000
iter:  80  14:44:49  -7.69  -3.79   -75.185313    1        +1.0000
iter:  81  14:45:07  -7.30  -3.81   -75.185319    1        +1.0000
iter:  82  14:45:25  -7.56  -3.88   -75.185322    1        +1.0000
iter:  83  14:45:43  -6.93  -3.95   -75.185325    1        +1.0000
iter:  84  14:46:00  -7.41  -4.12   -75.185325    1        +1.0000

Converged after 84 iterations.

Dipole moment: (-0.061312, 0.257415, 0.057482) |e|*Ang

Total magnetic moment: (0.000000, 0.000000, 1.000000)
Local magnetic moments:
   0 C  ( 0.000000,  0.000000,  0.005967)
   1 H  ( 0.000000,  0.000000,  0.000389)
   2 H  ( 0.000000,  0.000000,  0.002413)
   3 H  ( 0.000000,  0.000000,  0.000408)
   4 C  ( 0.000000,  0.000000,  0.023918)
   5 H  ( 0.000000,  0.000000, -0.000522)
   6 H  ( 0.000000,  0.000000, -0.000504)
   7 C  ( 0.000000,  0.000000, -0.083437)
   8 H  ( 0.000000,  0.000000,  0.022712)
   9 H  ( 0.000000,  0.000000,  0.022913)
  10 H  ( 0.000000,  0.000000,  0.023057)

Energy contributions relative to reference atoms: (reference = -2878.433763)

Kinetic:        +56.501873
Potential:      -70.433227
External:        +0.000000
XC:             -61.793549
Entropy (-ST):   -0.000085
Local:           +0.539621
--------------------------
Free energy:    -75.185368
Extrapolated:   -75.185325

Spin contamination: 0.126478 electrons
                   Up                     Down
 Band  Eigenvalues  Occupancy  Eigenvalues  Occupancy
    0    -22.43277    1.00000    -23.02187    1.00000
    1    -18.87545    1.00000    -18.98502    1.00000
    2    -15.89715    1.00000    -15.93596    1.00000
    3    -13.90705    1.00000    -14.20647    1.00000
    4    -13.70528    1.00000    -14.02794    1.00000
    5    -12.35513    1.00000    -12.56124    1.00000
    6    -11.04880    1.00000    -11.08173    1.00000
    7     -9.91063    1.00000     -9.95036    1.00000
    8     -9.48833    1.00000     -9.47370    1.00000
    9     -8.89289    1.00000     -8.85340    1.00000
   10     -1.72393    0.99992     -1.17635    0.00000
   11     -0.77411    0.00007     -0.23002    0.00000
   12     -0.67911    0.00001     -0.22518    0.00000
   13     -0.24159    0.00000      0.01147    0.00000
   14      0.33803    0.00000      0.70964    0.00000
   15      0.64487    0.00000      1.04421    0.00000
   16      0.86349    0.00000      1.17712    0.00000
   17      1.11577    0.00000      1.45333    0.00000

Fermi levels: -1.25250, -7.04688

Timing:                              incl.     excl.
-----------------------------------------------------------
Hamiltonian:                         1.891     0.001   0.0% |
 Atomic:                             0.102     0.005   0.0% |
  XC Correction:                     0.097     0.097   0.0% |
 Calculate atomic Hamiltonians:      0.001     0.001   0.0% |
 Communicate:                        0.027     0.027   0.0% |
 Hartree integrate/restrict:         0.005     0.005   0.0% |
 Initialize Hamiltonian:             0.000     0.000   0.0% |
 Poisson:                            0.078     0.002   0.0% |
  Communicate from 1D:               0.013     0.013   0.0% |
  Communicate from 2D:               0.013     0.013   0.0% |
  Communicate to 1D:                 0.028     0.028   0.0% |
  Communicate to 2D:                 0.012     0.012   0.0% |
  FFT 1D:                            0.003     0.003   0.0% |
  FFT 2D:                            0.006     0.006   0.0% |
 XC 3D grid:                         1.675     1.675   0.1% |
 vbar:                               0.002     0.002   0.0% |
LCAO initialization:                 1.330     0.105   0.0% |
 LCAO eigensolver:                   1.067     0.000   0.0% |
  Calculate projections:             0.000     0.000   0.0% |
  DenseAtomicCorrection:             0.000     0.000   0.0% |
  Distribute overlap matrix:         0.003     0.003   0.0% |
  Orbital Layouts:                   1.050     1.050   0.1% |
  Potential matrix:                  0.013     0.013   0.0% |
 LCAO to grid:                       0.025     0.025   0.0% |
 Set positions (LCAO WFS):           0.134     0.031   0.0% |
  Basic WFS set positions:           0.000     0.000   0.0% |
  Basis functions set positions:     0.000     0.000   0.0% |
  P tci:                             0.004     0.004   0.0% |
  ST tci:                            0.002     0.002   0.0% |
  mktci:                             0.096     0.096   0.0% |
SCF-cycle:                        1431.621     1.619   0.1% |
 Davidson:                        1152.043   568.791  39.2% |---------------|
  Apply hamiltonian:                26.044    26.044   1.8% ||
  Subspace diag:                    80.483     0.022   0.0% |
   calc_h_matrix:                    4.264     0.395   0.0% |
    Apply hamiltonian:               3.869     3.869   0.3% |
   diagonalize:                     33.697    33.697   2.3% ||
   rotate_psi:                      42.500    42.500   2.9% ||
  calc. matrices:                  106.494    99.599   6.9% |--|
   Apply hamiltonian:                6.894     6.894   0.5% |
  diagonalize:                     276.947   276.947  19.1% |-------|
  rotate_psi:                       93.284    93.284   6.4% |--|
 Density:                           96.043     0.002   0.0% |
  Atomic density matrices:           0.259     0.259   0.0% |
  Mix:                              95.495    95.495   6.6% |--|
  Multipole moments:                 0.130     0.130   0.0% |
  Pseudo density:                    0.157     0.155   0.0% |
   Symmetrize density:               0.002     0.002   0.0% |
 Hamiltonian:                      181.399     0.054   0.0% |
  Atomic:                           10.515     1.018   0.1% |
   XC Correction:                    9.497     9.497   0.7% |
  Calculate atomic Hamiltonians:     0.083     0.083   0.0% |
  Communicate:                       2.697     2.697   0.2% |
  Hartree integrate/restrict:        0.516     0.516   0.0% |
  Poisson:                           7.325     0.911   0.1% |
   Communicate from 1D:              1.196     1.196   0.1% |
   Communicate from 2D:              1.188     1.188   0.1% |
   Communicate to 1D:                1.675     1.675   0.1% |
   Communicate to 2D:                1.443     1.443   0.1% |
   FFT 1D:                           0.280     0.280   0.0% |
   FFT 2D:                           0.633     0.633   0.0% |
  XC 3D grid:                      160.094   160.094  11.0% |---|
  vbar:                              0.114     0.114   0.0% |
 Orthonormalize:                     0.518     0.000   0.0% |
  calc_s_matrix:                     0.003     0.003   0.0% |
  inverse-cholesky:                  0.273     0.273   0.0% |
  projections:                       0.019     0.019   0.0% |
  rotate_psi_s:                      0.223     0.223   0.0% |
Set symmetry:                        0.001     0.001   0.0% |
Other:                              16.113    16.113   1.1% |
-----------------------------------------------------------
Total:                                      1450.957 100.0%

Memory usage: 274.63 MiB
Date: Thu Mar 17 14:46:15 2022
