
  ___ ___ ___ _ _ _  
 |   |   |_  | | | | 
 | | | | | . | | | | 
 |__ |  _|___|_____|  21.6.0
 |___|_|             

User:   singhk93@c087.curta.zedat.fu-berlin.de
Date:   Thu Mar 17 13:30:23 2022
Arch:   x86_64
Pid:    127844
Python: 3.9.5
gpaw:   /trinity/shared/easybuild/software/GPAW/21.6.0-foss-2021a/lib/python3.9/site-packages/gpaw
_gpaw:  /trinity/shared/easybuild/software/GPAW/21.6.0-foss-2021a/lib/python3.9/site-packages/
        _gpaw.cpython-39-x86_64-linux-gnu.so
ase:    /trinity/shared/easybuild/software/ASE/3.22.0-foss-2021a/lib/python3.9/site-packages/ase (version 3.22.0)
numpy:  /trinity/shared/easybuild/software/SciPy-bundle/2021.05-foss-2021a/lib/python3.9/site-packages/numpy (version 1.20.3)
scipy:  /trinity/shared/easybuild/software/SciPy-bundle/2021.05-foss-2021a/lib/python3.9/site-packages/scipy (version 1.6.3)
libxc:  5.1.5
units:  Angstrom and eV
cores: 4
OpenMP: False
OMP_NUM_THREADS: 1

Input parameters:
  convergence: {energy: 0.001}
  eigensolver: {name: dav,
                niter: 3}
  h: 0.2
  mixer: {backend: pulay,
          beta: 0.02,
          method: separate,
          nmaxold: 3,
          weight: 100}
  nbands: -30
  setups: {7: hch1s}
  xc: PBE

System changes: positions, numbers, cell, pbc, initial_charges, initial_magmoms 

Initialize ...

C-setup:
  name: Carbon
  id: 4aa54d4b901d75f77cc0ea3eec22967b
  Z: 6.0
  valence: 4
  core: 2
  charge: 0.0
  file: /trinity/shared/easybuild/software/GPAW-setups/0.9.20000/C.PBE.gz
  compensation charges: gauss, rc=0.20, lmax=2
  cutoffs: 1.14(filt), 1.14(core),
  valence states:
                energy  radius
    2s(2.00)   -13.751   0.635
    2p(2.00)    -5.284   0.635
    *s          13.461   0.635
    *p          21.927   0.635
    *d           0.000   0.635

  Using partial waves for C as LCAO basis

H-setup:
  name: Hydrogen
  id: d65de229564ff8ea4db303e23b6d1ecf
  Z: 1.0
  valence: 1
  core: 0
  charge: 0.0
  file: /trinity/shared/easybuild/software/GPAW-setups/0.9.20000/H.PBE.gz
  compensation charges: gauss, rc=0.15, lmax=2
  cutoffs: 0.85(filt), 0.53(core),
  valence states:
                energy  radius
    1s(1.00)    -6.494   0.476
    *s          20.717   0.476
    *p           0.000   0.476

  Using partial waves for H as LCAO basis

C-setup (0.5 core hole):
  name: Carbon
  id: b7e58a4811994940c2e5fdb1ea8e7bfd
  Z: 6.0
  valence: 4
  core: 1.5
  charge: 0.5
  file: ./C.hch1s.PBE
  compensation charges: gauss, rc=0.20, lmax=2
  cutoffs: 1.14(filt), 1.08(core),
  valence states:
                energy  radius
    2s(2.00)   -21.131   0.635
    2p(2.00)   -12.377   0.635
    *s           6.080   0.635
    *p          14.834   0.635
    *d           0.000   0.635

  Using partial waves for C as LCAO basis

Reference energy: -3038.506045

Spin-paired calculation

Convergence criteria:
  Maximum total energy change: 0.001 eV / electron
  Maximum integral of absolute density change: 0.0001 electrons
  Maximum integral of absolute eigenstate change: 4e-08 eV^2
  Maximum number of iterations: 333

Symmetries present (total): 1

  ( 1  0  0)
  ( 0  1  0)
  ( 0  0  1)

1 k-point (Gamma)
1 k-point in the irreducible part of the Brillouin zone
       k-points in crystal coordinates                weights
   0:     0.00000000    0.00000000    0.00000000          1/1

Wave functions: Uniform real-space grid
  Kinetic energy operator: 6*3+1=19 point O(h^6) finite-difference Laplacian
  ScaLapack parameters: grid=1x1, blocksize=None
  Wavefunction extrapolation:
    Improved wavefunction reuse through dual PAW basis 

Occupation numbers: width=0.000 eV 

Eigensolver
   Davidson(niter=3) 

Densities:
  Coarse grid: 48*48*48 grid
  Fine grid: 96*96*96 grid
  Total Charge: 0.500000 

Density mixing:
  Method: separate
  Backend: pulay
  Linear mixing parameter: 0.02
  Mixing with 3 old densities
  Damping of long wave oscillations: 100 

Hamiltonian:
  XC and Coulomb potentials evaluated on a 96*96*96 grid
  Using the PBE Exchange-Correlation functional
  Interpolation: tri-quintic (5. degree polynomial)
  Poisson solver: FastPoissonSolver using
    Stencil: 6*3+1=19 point O(h^6) finite-difference Laplacian
    FFT axes: []
    FST axes: [0, 1, 2]
 

XC parameters: PBE with 2 nearest neighbor stencil

Memory estimate:
  Process memory now: 167.49 MiB
  Calculator: 26.94 MiB
    Density: 7.16 MiB
      Arrays: 5.18 MiB
      Localized functions: 0.84 MiB
      Mixer: 1.14 MiB
    Hamiltonian: 3.46 MiB
      Arrays: 3.39 MiB
      XC: 0.00 MiB
      Poisson: 0.00 MiB
      vbar: 0.07 MiB
    Wavefunctions: 16.33 MiB
      Arrays psit_nG: 7.59 MiB
      Eigensolver: 8.66 MiB
      Projections: 0.01 MiB
      Projectors: 0.07 MiB

Total number of cores used: 4
Domain decomposition: 2 x 2 x 1

Number of atoms: 11
Number of atomic orbitals: 20
Number of bands in calculation: 40
Number of valence electrons: 20
Bands to converge: occupied

... initialized

Initializing position-dependent things.

Density initialized from atomic densities
Creating initial wave functions:
  20 bands from LCAO basis set
  20 bands from random numbers

       .------------------------.  
      /|                        |  
     / |                        |  
    /  |                        |  
   /   |                        |  
  /    |                        |  
 *     |                        |  
 |     |         H              |  
 |     |     H HC               |  
 |     |        CHCHH           |  
 |     |       H                |  
 |     |        H               |  
 |     .------------------------.  
 |    /                        /   
 |   /                        /    
 |  /                        /     
 | /                        /      
 |/                        /       
 *------------------------*        

Positions:
   0 C      5.268056    5.826166    4.401038    ( 0.0000,  0.0000,  0.0000)
   1 H      6.384977    5.826166    4.401038    ( 0.0000,  0.0000,  0.0000)
   2 H      4.915248    6.885587    4.401038    ( 0.0000,  0.0000,  0.0000)
   3 H      4.918749    5.337857    3.459220    ( 0.0000,  0.0000,  0.0000)
   4 C      4.736845    5.094752    5.607062    ( 0.0000,  0.0000,  0.0000)
   5 H      5.077152    5.616262    6.540780    ( 0.0000,  0.0000,  0.0000)
   6 H      3.615023    5.129252    5.601462    ( 0.0000,  0.0000,  0.0000)
   7 C      5.195154    3.659324    5.637763    ( 0.0000,  0.0000,  0.0000)
   8 H      4.844047    3.114413    4.728245    ( 0.0000,  0.0000,  0.0000)
   9 H      6.310176    3.602722    5.670163    ( 0.0000,  0.0000,  0.0000)
  10 H      4.789246    3.139714    6.538980    ( 0.0000,  0.0000,  0.0000)

Unit cell:
           periodic     x           y           z      points  spacing
  1. axis:    no    10.000000    0.000000    0.000000    48     0.2083
  2. axis:    no     0.000000   10.000000    0.000000    48     0.2083
  3. axis:    no     0.000000    0.000000   10.000000    48     0.2083

  Lengths:  10.000000  10.000000  10.000000
  Angles:   90.000000  90.000000  90.000000

Effective grid spacing dv^(1/3) = 0.2083

                     log10-error:    total        iterations:
           time      wfs    density  energy       poisson
iter:   1  13:31:19                 -66.470737    1      
iter:   2  13:32:05  -0.79  -0.55   -65.967889    1      
iter:   3  13:32:54  -0.84  -0.56   -60.947177    1      
iter:   4  13:33:42  -1.73  -0.81   -60.585371    1      
iter:   5  13:34:34  -1.29  -0.86   -59.903090    1      
iter:   6  13:35:31  -1.69  -1.36   -59.693371    1      
iter:   7  13:36:20  -2.55  -1.86   -59.687062    1      
iter:   8  13:37:11  -3.27  -1.89   -59.685439    1      
iter:   9  13:38:00  -3.42  -1.89   -59.685537    1      
iter:  10  13:38:46  -4.09  -1.87   -59.686464    1      
iter:  11  13:39:35  -3.78  -1.89   -59.686748    1      
iter:  12  13:40:24  -4.36  -1.98   -59.684771    1      
iter:  13  13:41:11  -3.70  -2.04   -59.680333    1      
iter:  14  13:41:58  -4.29  -2.09   -59.679296    1      
iter:  15  13:42:45  -3.90  -2.11   -59.676170    1      
iter:  16  13:43:35  -4.49  -2.18   -59.675733    1      
iter:  17  13:44:23  -3.63  -2.18   -59.677285    1      
iter:  18  13:45:10  -4.52  -2.20   -59.676993    1      
iter:  19  13:45:57  -4.01  -2.20   -59.675574    1      
iter:  20  13:46:46  -4.81  -2.23   -59.675408    1      
iter:  21  13:47:36  -3.99  -2.24   -59.674176    1      
iter:  22  13:48:24  -4.75  -2.56   -59.674080    1      
iter:  23  13:49:14  -5.12  -2.57   -59.674042    1      
iter:  24  13:50:02  -4.47  -2.58   -59.674206    1      
iter:  25  13:50:51  -5.06  -2.84   -59.674263    1      
iter:  26  13:51:43  -5.58  -2.85   -59.674235    1      
iter:  27  13:52:31  -5.69  -2.87   -59.674209    1      
iter:  28  13:53:18  -5.35  -2.91   -59.674159    1      
iter:  29  13:54:09  -5.45  -3.08   -59.674152    1      
iter:  30  13:55:03  -6.20  -3.20   -59.674152    1      
iter:  31  13:55:56  -6.49  -3.21   -59.674154    1      
iter:  32  13:56:41  -6.16  -3.23   -59.674158    1      
iter:  33  13:57:32  -6.21  -3.27   -59.674166    1      
iter:  34  13:58:19  -5.99  -3.27   -59.674167    1      
iter:  35  13:59:08  -6.59  -3.44   -59.674173    1      
iter:  36  13:59:58  -7.27  -3.48   -59.674174    1      
iter:  37  14:00:45  -6.64  -3.49   -59.674171    1      
iter:  38  14:01:34  -7.27  -3.56   -59.674171    1      
iter:  39  14:02:25  -6.25  -3.58   -59.674169    1      
iter:  40  14:03:17  -6.95  -4.21   -59.674169    1      
iter:  41  14:04:03  -7.63  -4.39   -59.674169    1      

Converged after 41 iterations.

Dipole moment: (2.569831, 1.995582, 2.778944) |e|*Ang

Energy contributions relative to reference atoms: (reference = -3038.506045)

Kinetic:        +48.309706
Potential:      -59.178012
External:        +0.000000
XC:             -49.251182
Entropy (-ST):   +0.000000
Local:           +0.445320
--------------------------
Free energy:    -59.674169
Extrapolated:   -59.674169

 Band  Eigenvalues  Occupancy
    0    -23.43883    2.00000
    1    -20.32295    2.00000
    2    -17.36968    2.00000
    3    -14.96127    2.00000
    4    -14.63458    2.00000
    5    -13.46843    2.00000
    6    -12.60397    2.00000
    7    -11.41967    2.00000
    8    -11.15212    2.00000
    9    -10.64796    2.00000
   10     -2.71693    0.00000
   11     -1.69724    0.00000
   12     -1.65777    0.00000
   13     -1.53195    0.00000
   14     -0.94083    0.00000
   15     -0.51737    0.00000
   16     -0.36266    0.00000
   17     -0.12328    0.00000
   18      0.20555    0.00000
   19      0.40597    0.00000
   20      0.72033    0.00000
   21      0.98423    0.00000
   22      1.17872    0.00000
   23      1.22512    0.00000
   24      1.52335    0.00000
   25      1.63284    0.00000
   26      2.21768    0.00000
   27      2.39058    0.00000
   28      2.52901    0.00000
   29      2.97712    0.00000
   30      3.12890    0.00000
   31      3.33263    0.00000
   32      3.50118    0.00000
   33      3.69865    0.00000
   34      3.77975    0.00000
   35      3.88736    0.00000
   36      3.95571    0.00000
   37      4.12508    0.00000
   38      4.19436    0.00000
   39      4.34092    0.00000

Fermi level: -6.68244

Gap: 7.931 eV
Transition (v -> c):
  (s=0, k=0, n=9, [0.00, 0.00, 0.00]) -> (s=0, k=0, n=10, [0.00, 0.00, 0.00])
Writing to /home/singhk93/output_files/Propane/Propane_7_xas.gpw (mode='')

Timing:                              incl.     excl.
-----------------------------------------------------------
Hamiltonian:                         2.058     0.000   0.0% |
 Atomic:                             0.187     0.001   0.0% |
  XC Correction:                     0.185     0.185   0.0% |
 Calculate atomic Hamiltonians:      0.014     0.014   0.0% |
 Communicate:                        0.142     0.142   0.0% |
 Hartree integrate/restrict:         0.133     0.133   0.0% |
 Initialize Hamiltonian:             0.001     0.001   0.0% |
 Poisson:                            0.499     0.192   0.0% |
  Communicate from 1D:               0.039     0.039   0.0% |
  Communicate from 2D:               0.033     0.033   0.0% |
  Communicate to 1D:                 0.173     0.173   0.0% |
  Communicate to 2D:                 0.050     0.050   0.0% |
  FFT 1D:                            0.004     0.004   0.0% |
  FFT 2D:                            0.008     0.008   0.0% |
 XC 3D grid:                         1.082     1.082   0.1% |
 vbar:                               0.002     0.002   0.0% |
LCAO initialization:                 2.005     0.668   0.0% |
 LCAO eigensolver:                   0.911     0.001   0.0% |
  Calculate projections:             0.000     0.000   0.0% |
  DenseAtomicCorrection:             0.000     0.000   0.0% |
  Distribute overlap matrix:         0.031     0.031   0.0% |
  Orbital Layouts:                   0.872     0.872   0.0% |
  Potential matrix:                  0.007     0.007   0.0% |
 LCAO to grid:                       0.100     0.100   0.0% |
 Set positions (LCAO WFS):           0.326     0.221   0.0% |
  Basic WFS set positions:           0.001     0.001   0.0% |
  Basis functions set positions:     0.000     0.000   0.0% |
  P tci:                             0.005     0.005   0.0% |
  ST tci:                            0.002     0.002   0.0% |
  mktci:                             0.097     0.097   0.0% |
SCF-cycle:                        2009.018     2.565   0.1% |
 Davidson:                        1845.540   709.532  35.1% |-------------|
  Apply hamiltonian:                14.212    14.212   0.7% |
  Subspace diag:                   103.635     0.328   0.0% |
   calc_h_matrix:                   11.264     2.243   0.1% |
    Apply hamiltonian:               9.021     9.021   0.4% |
   diagonalize:                     71.995    71.995   3.6% ||
   rotate_psi:                      20.047    20.047   1.0% |
  calc. matrices:                   81.958    73.199   3.6% ||
   Apply hamiltonian:                8.759     8.759   0.4% |
  diagonalize:                     881.872   881.872  43.6% |----------------|
  rotate_psi:                       54.332    54.332   2.7% ||
 Density:                           63.957     0.012   0.0% |
  Atomic density matrices:           1.004     1.004   0.0% |
  Mix:                              62.489    62.489   3.1% ||
  Multipole moments:                 0.195     0.195   0.0% |
  Pseudo density:                    0.256     0.196   0.0% |
   Symmetrize density:               0.060     0.060   0.0% |
 Hamiltonian:                       95.554     0.255   0.0% |
  Atomic:                           10.475     1.875   0.1% |
   XC Correction:                    8.601     8.601   0.4% |
  Calculate atomic Hamiltonians:     0.778     0.778   0.0% |
  Communicate:                       3.489     3.489   0.2% |
  Hartree integrate/restrict:        3.425     3.425   0.2% |
  Poisson:                          23.391    11.661   0.6% |
   Communicate from 1D:              3.134     3.134   0.2% |
   Communicate from 2D:              1.628     1.628   0.1% |
   Communicate to 1D:                4.288     4.288   0.2% |
   Communicate to 2D:                1.857     1.857   0.1% |
   FFT 1D:                           0.243     0.243   0.0% |
   FFT 2D:                           0.581     0.581   0.0% |
  XC 3D grid:                       52.791    52.791   2.6% ||
  vbar:                              0.950     0.950   0.0% |
 Orthonormalize:                     1.403     0.000   0.0% |
  calc_s_matrix:                     0.031     0.031   0.0% |
  inverse-cholesky:                  1.077     1.077   0.1% |
  projections:                       0.156     0.156   0.0% |
  rotate_psi_s:                      0.137     0.137   0.0% |
Set symmetry:                        0.001     0.001   0.0% |
Other:                               9.534     9.534   0.5% |
-----------------------------------------------------------
Total:                                      2022.616 100.0%

Memory usage: 167.49 MiB
Date: Thu Mar 17 14:04:06 2022
