
  ___ ___ ___ _ _ _  
 |   |   |_  | | | | 
 | | | | | . | | | | 
 |__ |  _|___|_____|  21.6.0
 |___|_|             

User:   singhk93@c136.curta.zedat.fu-berlin.de
Date:   Thu Mar 17 14:22:13 2022
Arch:   x86_64
Pid:    228154
Python: 3.9.5
gpaw:   /trinity/shared/easybuild/software/GPAW/21.6.0-foss-2021a/lib/python3.9/site-packages/gpaw
_gpaw:  /trinity/shared/easybuild/software/GPAW/21.6.0-foss-2021a/lib/python3.9/site-packages/
        _gpaw.cpython-39-x86_64-linux-gnu.so
ase:    /trinity/shared/easybuild/software/ASE/3.22.0-foss-2021a/lib/python3.9/site-packages/ase (version 3.22.0)
numpy:  /trinity/shared/easybuild/software/SciPy-bundle/2021.05-foss-2021a/lib/python3.9/site-packages/numpy (version 1.20.3)
scipy:  /trinity/shared/easybuild/software/SciPy-bundle/2021.05-foss-2021a/lib/python3.9/site-packages/scipy (version 1.6.3)
libxc:  5.1.5
units:  Angstrom and eV
cores: 4
OpenMP: False
OMP_NUM_THREADS: 1

Input parameters:
  charge: -1
  convergence: {energy: 0.001}
  eigensolver: {name: dav,
                niter: 3}
  h: 0.2
  mixer: {backend: pulay,
          beta: 0.02,
          method: difference,
          nmaxold: 3,
          weight: 100}
  occupations: {fixmagmom: True,
                name: fermi-dirac,
                width: 0.05}
  setups: {2: fch1s}
  spinpol: True
  xc: PBE

System changes: positions, numbers, cell, pbc, initial_charges, initial_magmoms 

Initialize ...

O-setup:
  name: Oxygen
  id: 32ecd46bf208036f09c70b0ec9a88b78
  Z: 8.0
  valence: 6
  core: 2
  charge: 0.0
  file: /trinity/shared/easybuild/software/GPAW-setups/0.9.20000/O.PBE.gz
  compensation charges: gauss, rc=0.21, lmax=2
  cutoffs: 1.17(filt), 0.83(core),
  valence states:
                energy  radius
    2s(2.00)   -23.961   0.688
    2p(4.00)    -9.029   0.598
    *s           3.251   0.688
    *p          18.182   0.598
    *d           0.000   0.619

  Using partial waves for O as LCAO basis

C-setup:
  name: Carbon
  id: 4aa54d4b901d75f77cc0ea3eec22967b
  Z: 6.0
  valence: 4
  core: 2
  charge: 0.0
  file: /trinity/shared/easybuild/software/GPAW-setups/0.9.20000/C.PBE.gz
  compensation charges: gauss, rc=0.20, lmax=2
  cutoffs: 1.14(filt), 1.14(core),
  valence states:
                energy  radius
    2s(2.00)   -13.751   0.635
    2p(2.00)    -5.284   0.635
    *s          13.461   0.635
    *p          21.927   0.635
    *d           0.000   0.635

  Using partial waves for C as LCAO basis

C-setup (1.0 core hole):
  name: Carbon
  id: c050d65acf0e07bc923b5bd334fffffc
  Z: 6.0
  valence: 4
  core: 1.0
  charge: 1.0
  file: ./C.fch1s.PBE
  compensation charges: gauss, rc=0.20, lmax=2
  cutoffs: 1.14(filt), 1.01(core),
  valence states:
                energy  radius
    2s(2.00)   -29.911   0.635
    2p(2.00)   -21.336   0.635
    *s          -2.700   0.635
    *p           5.875   0.635
    *d           0.000   0.635

  Using partial waves for C as LCAO basis

H-setup:
  name: Hydrogen
  id: d65de229564ff8ea4db303e23b6d1ecf
  Z: 1.0
  valence: 1
  core: 0
  charge: 0.0
  file: /trinity/shared/easybuild/software/GPAW-setups/0.9.20000/H.PBE.gz
  compensation charges: gauss, rc=0.15, lmax=2
  cutoffs: 0.85(filt), 0.53(core),
  valence states:
                energy  radius
    1s(1.00)    -6.494   0.476
    *s          20.717   0.476
    *p           0.000   0.476

  Using partial waves for H as LCAO basis

Reference energy: -4869.325415

Spin-polarized calculation.
Magnetic moment: 1.000000

Convergence criteria:
  Maximum total energy change: 0.001 eV / electron
  Maximum integral of absolute density change: 0.0001 electrons
  Maximum integral of absolute eigenstate change: 4e-08 eV^2
  Maximum number of iterations: 333

Symmetries present (total): 2

  ( 1  0  0)  ( 1  0  0)
  ( 0  1  0)  ( 0  1  0)
  ( 0  0  1)  ( 0  0 -1)

1 k-point (Gamma)
1 k-point in the irreducible part of the Brillouin zone
       k-points in crystal coordinates                weights
   0:     0.00000000    0.00000000    0.00000000          1/1

Wave functions: Uniform real-space grid
  Kinetic energy operator: 6*3+1=19 point O(h^6) finite-difference Laplacian
  ScaLapack parameters: grid=1x1, blocksize=None
  Wavefunction extrapolation:
    Improved wavefunction reuse through dual PAW basis 

Occupation numbers: <gpaw.occupations.FixMagneticMomentOccupationNumberCalculator object at 0x2aaaf8ed5700> 

Eigensolver
   Davidson(niter=3) 

Densities:
  Coarse grid: 48*48*48 grid
  Fine grid: 96*96*96 grid
  Total Charge: 0.000000 

Density mixing:
  Method: difference
  Backend: pulay
  Linear mixing parameter: 0.02
  Mixing with 3 old densities
  Damping of long wave oscillations: 100 

Hamiltonian:
  XC and Coulomb potentials evaluated on a 96*96*96 grid
  Using the PBE Exchange-Correlation functional
  Interpolation: tri-quintic (5. degree polynomial)
  Poisson solver: FastPoissonSolver using
    Stencil: 6*3+1=19 point O(h^6) finite-difference Laplacian
    FFT axes: []
    FST axes: [0, 1, 2]
 

XC parameters: PBE with 2 nearest neighbor stencil

Memory estimate:
  Process memory now: 233.43 MiB
  Calculator: 26.77 MiB
    Density: 9.65 MiB
      Arrays: 6.97 MiB
      Localized functions: 0.78 MiB
      Mixer: 1.90 MiB
    Hamiltonian: 5.24 MiB
      Arrays: 5.18 MiB
      XC: 0.00 MiB
      Poisson: 0.00 MiB
      vbar: 0.06 MiB
    Wavefunctions: 11.87 MiB
      Arrays psit_nG: 7.21 MiB
      Eigensolver: 4.58 MiB
      Projections: 0.01 MiB
      Projectors: 0.08 MiB

Total number of cores used: 4
Domain decomposition: 2 x 2 x 1

Number of atoms: 8
Number of atomic orbitals: 20
Number of bands in calculation: 19
Number of valence electrons: 23
Bands to converge: occupied

... initialized

Initializing position-dependent things.

Density initialized from atomic densities
Creating initial wave functions:
  19 bands from LCAO basis set

       .------------------------.  
      /|                        |  
     / |                        |  
    /  |                        |  
   /   |                        |  
  /    |                        |  
 *     |                        |  
 |     |                        |  
 |     |       H     H          |  
 |     |   O  C  C  C H         |  
 |     |        H               |  
 |     |                        |  
 |     .------------------------.  
 |    /                        /   
 |   /                        /    
 |  /                        /     
 | /                        /      
 |/                        /       
 *------------------------*        

Positions:
   0 O      2.751235    4.890599    5.000000    ( 0.0000,  0.0000,  1.0000)
   1 C      6.329213    5.165146    5.000000    ( 0.0000,  0.0000,  0.0000)
   2 C      5.148244    4.594174    5.000000    ( 0.0000,  0.0000,  0.0000)
   3 C      3.864896    5.390044    5.000000    ( 0.0000,  0.0000,  0.0000)
   4 H      4.011247    6.483959    5.000000    ( 0.0000,  0.0000,  0.0000)
   5 H      5.037958    3.516041    5.000000    ( 0.0000,  0.0000,  0.0000)
   6 H      7.248765    4.594411    5.000000    ( 0.0000,  0.0000,  0.0000)
   7 H      6.441002    6.242521    5.000000    ( 0.0000,  0.0000,  0.0000)

Unit cell:
           periodic     x           y           z      points  spacing
  1. axis:    no    10.000000    0.000000    0.000000    48     0.2083
  2. axis:    no     0.000000   10.000000    0.000000    48     0.2083
  3. axis:    no     0.000000    0.000000   10.000000    48     0.2083

  Lengths:  10.000000  10.000000  10.000000
  Angles:   90.000000  90.000000  90.000000

Effective grid spacing dv^(1/3) = 0.2083

                     log10-error:    total        iterations:
           time      wfs    density  energy       poisson  magmom
iter:   1  14:22:35                 -74.687457    1        +1.0419
iter:   2  14:22:50  -0.46  -0.63   -73.615910    1        +1.0126
iter:   3  14:23:08  -1.24  -0.70   -72.361900    1        +1.0090
iter:   4  14:23:25  -0.51  -0.76   -68.255500    1        +1.0061
iter:   5  14:23:41  -1.01  -0.98   -69.113768    1        +1.0033
iter:   6  14:23:57  -1.72  -0.99   -69.140140    1        +1.0010
iter:   7  14:24:14  -0.70  -1.00   -69.039870    1        +0.9996
iter:   8  14:24:31  -1.76  -1.33   -68.806091    1        +1.0000
iter:   9  14:24:48  -2.15  -1.30   -68.754202    1        +1.0000
iter:  10  14:25:05  -1.81  -1.31   -68.837274    1        +1.0000
iter:  11  14:25:20  -2.15  -1.48   -68.811650    1        +1.0000
iter:  12  14:25:36  -2.17  -1.50   -68.794809    1        +1.0000
iter:  13  14:25:53  -1.54  -1.54   -68.734589    1        +1.0000
iter:  14  14:26:12  -1.93  -1.86   -68.709018    1        +1.0000
iter:  15  14:26:28  -2.65  -1.97   -68.705763    1        +1.0000
iter:  16  14:26:45  -3.22  -1.98   -68.703891    1        +1.0000
iter:  17  14:27:03  -3.45  -2.00   -68.702728    1        +1.0000
iter:  18  14:27:21  -3.97  -2.03   -68.702743    1        +1.0000
iter:  19  14:27:39  -3.11  -2.05   -68.705110    1        +1.0000
iter:  20  14:27:57  -3.73  -2.33   -68.704235    1        +1.0000
iter:  21  14:28:12  -3.86  -2.38   -68.703619    1        +1.0000
iter:  22  14:28:29  -3.46  -2.43   -68.701781    1        +1.0000
iter:  23  14:28:46  -3.83  -2.57   -68.701494    1        +1.0000
iter:  24  14:29:02  -4.18  -2.65   -68.701604    1        +1.0000
iter:  25  14:29:21  -4.59  -2.68   -68.701825    1        +1.0000
iter:  26  14:29:39  -5.17  -2.71   -68.701838    1        +1.0000
iter:  27  14:29:56  -4.39  -2.73   -68.701836    1        +1.0000
iter:  28  14:30:12  -4.91  -2.93   -68.701868    1        +1.0000
iter:  29  14:30:28  -5.06  -2.99   -68.701934    1        +1.0000
iter:  30  14:30:50  -5.88  -3.11   -68.701923    1        +1.0000
iter:  31  14:31:13  -4.78  -3.13   -68.701894    1        +1.0000
iter:  32  14:31:30  -5.67  -3.33   -68.701883    1        +1.0000
iter:  33  14:31:49  -6.11  -3.34   -68.701878    1        +1.0000
iter:  34  14:32:07  -6.31  -3.33   -68.701876    1        +1.0000
iter:  35  14:32:26  -6.25  -3.35   -68.701875    1        +1.0000
iter:  36  14:32:43  -6.33  -3.38   -68.701875    1        +1.0000
iter:  37  14:33:01  -6.81  -3.43   -68.701872    1        +1.0000
iter:  38  14:33:22  -6.02  -3.50   -68.701867    1        +1.0000
iter:  39  14:33:43  -6.59  -3.59   -68.701866    1        +1.0000
iter:  40  14:34:05  -6.03  -3.62   -68.701865    1        +1.0000
iter:  41  14:34:25  -6.55  -3.76   -68.701864    1        +1.0000
iter:  42  14:34:45  -6.59  -3.78   -68.701864    1        +1.0000
iter:  43  14:35:00  -7.34  -3.79   -68.701864    1        +1.0000
iter:  44  14:35:21  -7.05  -3.80   -68.701864    1        +1.0000
iter:  45  14:35:41  -6.78  -3.83   -68.701863    1        +1.0000
iter:  46  14:36:02  -6.80  -3.93   -68.701863    1        +1.0000
iter:  47  14:36:20  -7.29  -4.20   -68.701863    1        +1.0000
iter:  48  14:36:40  -7.45  -4.24   -68.701863    1        +1.0000

Converged after 48 iterations.

Dipole moment: (0.704357, -0.016534, 0.000000) |e|*Ang

Total magnetic moment: (0.000000, 0.000000, 1.000000)
Local magnetic moments:
   0 O  ( 0.000000,  0.000000,  0.103050)
   1 C  ( 0.000000,  0.000000,  0.246809)
   2 C  ( 0.000000,  0.000000, -0.103981)
   3 C  ( 0.000000,  0.000000,  0.054008)
   4 H  ( 0.000000,  0.000000,  0.000386)
   5 H  ( 0.000000,  0.000000,  0.014531)
   6 H  ( 0.000000,  0.000000, -0.005983)
   7 H  ( 0.000000,  0.000000, -0.005831)

Energy contributions relative to reference atoms: (reference = -4869.325415)

Kinetic:        +58.666745
Potential:      -69.202080
External:        +0.000000
XC:             -59.517519
Entropy (-ST):   -0.000000
Local:           +1.350992
--------------------------
Free energy:    -68.701863
Extrapolated:   -68.701863

Spin contamination: 0.157209 electrons
                   Up                     Down
 Band  Eigenvalues  Occupancy  Eigenvalues  Occupancy
    0    -25.98689    1.00000    -25.83735    1.00000
    1    -21.99972    1.00000    -22.45949    1.00000
    2    -16.92609    1.00000    -16.78483    1.00000
    3    -15.40529    1.00000    -15.58898    1.00000
    4    -12.84883    1.00000    -12.87802    1.00000
    5    -12.46115    1.00000    -12.53633    1.00000
    6    -10.55005    1.00000    -10.45581    1.00000
    7    -10.52233    1.00000    -10.39275    1.00000
    8    -10.01297    1.00000     -9.88575    1.00000
    9     -8.68551    1.00000     -8.37029    1.00000
   10     -6.32451    1.00000     -6.35239    1.00000
   11     -3.72189    1.00000     -2.50678    0.00000
   12     -1.42745    0.00000     -1.10682    0.00000
   13     -0.30985    0.00000     -0.37054    0.00000
   14      0.07653    0.00000      0.23163    0.00000
   15      0.83467    0.00000      0.95298    0.00000
   16      1.40387    0.00000      1.50115    0.00000
   17      1.84065    0.00000      1.97054    0.00000
   18      2.17701    0.00000      2.21884    0.00000

Fermi levels: -2.58192, -3.96704

Timing:                              incl.     excl.
-----------------------------------------------------------
Hamiltonian:                         1.858     0.001   0.0% |
 Atomic:                             0.125     0.001   0.0% |
  XC Correction:                     0.124     0.124   0.0% |
 Calculate atomic Hamiltonians:      0.001     0.001   0.0% |
 Communicate:                        0.000     0.000   0.0% |
 Hartree integrate/restrict:         0.005     0.005   0.0% |
 Initialize Hamiltonian:             0.000     0.000   0.0% |
 Poisson:                            0.075     0.014   0.0% |
  Communicate from 1D:               0.012     0.012   0.0% |
  Communicate from 2D:               0.012     0.012   0.0% |
  Communicate to 1D:                 0.018     0.018   0.0% |
  Communicate to 2D:                 0.012     0.012   0.0% |
  FFT 1D:                            0.003     0.003   0.0% |
  FFT 2D:                            0.006     0.006   0.0% |
 XC 3D grid:                         1.650     1.650   0.2% |
 vbar:                               0.001     0.001   0.0% |
LCAO initialization:                 0.818     0.202   0.0% |
 LCAO eigensolver:                   0.441     0.000   0.0% |
  Calculate projections:             0.000     0.000   0.0% |
  DenseAtomicCorrection:             0.000     0.000   0.0% |
  Distribute overlap matrix:         0.006     0.006   0.0% |
  Orbital Layouts:                   0.426     0.426   0.0% |
  Potential matrix:                  0.008     0.008   0.0% |
 LCAO to grid:                       0.018     0.018   0.0% |
 Set positions (LCAO WFS):           0.158     0.042   0.0% |
  Basic WFS set positions:           0.001     0.001   0.0% |
  Basis functions set positions:     0.000     0.000   0.0% |
  P tci:                             0.003     0.003   0.0% |
  ST tci:                            0.001     0.001   0.0% |
  mktci:                             0.111     0.111   0.0% |
SCF-cycle:                         861.622     0.715   0.1% |
 Davidson:                         714.946   335.126  38.5% |--------------|
  Apply hamiltonian:                13.103    13.103   1.5% ||
  Subspace diag:                    45.179     0.011   0.0% |
   calc_h_matrix:                    2.246     0.231   0.0% |
    Apply hamiltonian:               2.015     2.015   0.2% |
   diagonalize:                     18.709    18.709   2.1% ||
   rotate_psi:                      24.212    24.212   2.8% ||
  calc. matrices:                   56.743    52.986   6.1% |-|
   Apply hamiltonian:                3.757     3.757   0.4% |
  diagonalize:                     211.579   211.579  24.3% |---------|
  rotate_psi:                       53.215    53.215   6.1% |-|
 Density:                           53.260     0.001   0.0% |
  Atomic density matrices:           0.064     0.064   0.0% |
  Mix:                              51.686    51.686   5.9% |-|
  Multipole moments:                 0.008     0.008   0.0% |
  Pseudo density:                    1.502     0.088   0.0% |
   Symmetrize density:               1.414     1.414   0.2% |
 Hamiltonian:                       92.364     0.027   0.0% |
  Atomic:                            6.061     0.032   0.0% |
   XC Correction:                    6.029     6.029   0.7% |
  Calculate atomic Hamiltonians:     0.037     0.037   0.0% |
  Communicate:                       0.011     0.011   0.0% |
  Hartree integrate/restrict:        0.255     0.255   0.0% |
  Poisson:                           3.780     0.385   0.0% |
   Communicate from 1D:              0.606     0.606   0.1% |
   Communicate from 2D:              0.600     0.600   0.1% |
   Communicate to 1D:                0.975     0.975   0.1% |
   Communicate to 2D:                0.779     0.779   0.1% |
   FFT 1D:                           0.133     0.133   0.0% |
   FFT 2D:                           0.303     0.303   0.0% |
  XC 3D grid:                       82.138    82.138   9.4% |---|
  vbar:                              0.054     0.054   0.0% |
 Orthonormalize:                     0.336     0.000   0.0% |
  calc_s_matrix:                     0.004     0.004   0.0% |
  inverse-cholesky:                  0.195     0.195   0.0% |
  projections:                       0.002     0.002   0.0% |
  rotate_psi_s:                      0.135     0.135   0.0% |
Set symmetry:                        0.001     0.001   0.0% |
Other:                               7.084     7.084   0.8% |
-----------------------------------------------------------
Total:                                       871.383 100.0%

Memory usage: 281.90 MiB
Date: Thu Mar 17 14:36:44 2022
