
  ___ ___ ___ _ _ _  
 |   |   |_  | | | | 
 | | | | | . | | | | 
 |__ |  _|___|_____|  21.6.0
 |___|_|             

User:   singhk93@c124.curta.zedat.fu-berlin.de
Date:   Thu Mar 17 14:21:51 2022
Arch:   x86_64
Pid:    24073
Python: 3.9.5
gpaw:   /trinity/shared/easybuild/software/GPAW/21.6.0-foss-2021a/lib/python3.9/site-packages/gpaw
_gpaw:  /trinity/shared/easybuild/software/GPAW/21.6.0-foss-2021a/lib/python3.9/site-packages/
        _gpaw.cpython-39-x86_64-linux-gnu.so
ase:    /trinity/shared/easybuild/software/ASE/3.22.0-foss-2021a/lib/python3.9/site-packages/ase (version 3.22.0)
numpy:  /trinity/shared/easybuild/software/SciPy-bundle/2021.05-foss-2021a/lib/python3.9/site-packages/numpy (version 1.20.3)
scipy:  /trinity/shared/easybuild/software/SciPy-bundle/2021.05-foss-2021a/lib/python3.9/site-packages/scipy (version 1.6.3)
libxc:  5.1.5
units:  Angstrom and eV
cores: 4
OpenMP: False
OMP_NUM_THREADS: 1

Input parameters:
  charge: -1
  convergence: {energy: 0.001}
  eigensolver: {name: dav,
                niter: 3}
  h: 0.2
  mixer: {backend: pulay,
          beta: 0.02,
          method: difference,
          nmaxold: 3,
          weight: 100}
  occupations: {fixmagmom: True,
                name: fermi-dirac,
                width: 0.05}
  setups: {0: fch1s}
  spinpol: True
  xc: PBE

System changes: positions, numbers, cell, pbc, initial_charges, initial_magmoms 

Initialize ...

C-setup (1.0 core hole):
  name: Carbon
  id: c050d65acf0e07bc923b5bd334fffffc
  Z: 6.0
  valence: 4
  core: 1.0
  charge: 1.0
  file: ./C.fch1s.PBE
  compensation charges: gauss, rc=0.20, lmax=2
  cutoffs: 1.14(filt), 1.01(core),
  valence states:
                energy  radius
    2s(2.00)   -29.911   0.635
    2p(2.00)   -21.336   0.635
    *s          -2.700   0.635
    *p           5.875   0.635
    *d           0.000   0.635

  Using partial waves for C as LCAO basis

H-setup:
  name: Hydrogen
  id: d65de229564ff8ea4db303e23b6d1ecf
  Z: 1.0
  valence: 1
  core: 0
  charge: 0.0
  file: /trinity/shared/easybuild/software/GPAW-setups/0.9.20000/H.PBE.gz
  compensation charges: gauss, rc=0.15, lmax=2
  cutoffs: 0.85(filt), 0.53(core),
  valence states:
                energy  radius
    1s(1.00)    -6.494   0.476
    *s          20.717   0.476
    *p           0.000   0.476

  Using partial waves for H as LCAO basis

C-setup:
  name: Carbon
  id: 4aa54d4b901d75f77cc0ea3eec22967b
  Z: 6.0
  valence: 4
  core: 2
  charge: 0.0
  file: /trinity/shared/easybuild/software/GPAW-setups/0.9.20000/C.PBE.gz
  compensation charges: gauss, rc=0.20, lmax=2
  cutoffs: 1.14(filt), 1.14(core),
  valence states:
                energy  radius
    2s(2.00)   -13.751   0.635
    2p(2.00)    -5.284   0.635
    *s          13.461   0.635
    *p          21.927   0.635
    *d           0.000   0.635

  Using partial waves for C as LCAO basis

Reference energy: -1825.825323

Spin-polarized calculation.
Magnetic moment: 1.000000

Convergence criteria:
  Maximum total energy change: 0.001 eV / electron
  Maximum integral of absolute density change: 0.0001 electrons
  Maximum integral of absolute eigenstate change: 4e-08 eV^2
  Maximum number of iterations: 333

Symmetries present (total): 1

  ( 1  0  0)
  ( 0  1  0)
  ( 0  0  1)

1 k-point (Gamma)
1 k-point in the irreducible part of the Brillouin zone
       k-points in crystal coordinates                weights
   0:     0.00000000    0.00000000    0.00000000          1/1

Wave functions: Uniform real-space grid
  Kinetic energy operator: 6*3+1=19 point O(h^6) finite-difference Laplacian
  ScaLapack parameters: grid=1x1, blocksize=None
  Wavefunction extrapolation:
    Improved wavefunction reuse through dual PAW basis 

Occupation numbers: <gpaw.occupations.FixMagneticMomentOccupationNumberCalculator object at 0x2aaaf8ed7df0> 

Eigensolver
   Davidson(niter=3) 

Densities:
  Coarse grid: 48*48*48 grid
  Fine grid: 96*96*96 grid
  Total Charge: 0.000000 

Density mixing:
  Method: difference
  Backend: pulay
  Linear mixing parameter: 0.02
  Mixing with 3 old densities
  Damping of long wave oscillations: 100 

Hamiltonian:
  XC and Coulomb potentials evaluated on a 96*96*96 grid
  Using the PBE Exchange-Correlation functional
  Interpolation: tri-quintic (5. degree polynomial)
  Poisson solver: FastPoissonSolver using
    Stencil: 6*3+1=19 point O(h^6) finite-difference Laplacian
    FFT axes: []
    FST axes: [0, 1, 2]
 

XC parameters: PBE with 2 nearest neighbor stencil

Memory estimate:
  Process memory now: 232.58 MiB
  Calculator: 23.68 MiB
    Density: 9.46 MiB
      Arrays: 6.97 MiB
      Localized functions: 0.59 MiB
      Mixer: 1.90 MiB
    Hamiltonian: 5.23 MiB
      Arrays: 5.18 MiB
      XC: 0.00 MiB
      Poisson: 0.00 MiB
      vbar: 0.05 MiB
    Wavefunctions: 8.98 MiB
      Arrays psit_nG: 5.31 MiB
      Eigensolver: 3.62 MiB
      Projections: 0.00 MiB
      Projectors: 0.05 MiB

Total number of cores used: 4
Domain decomposition: 2 x 2 x 1

Number of atoms: 8
Number of atomic orbitals: 14
Number of bands in calculation: 14
Number of valence electrons: 15
Bands to converge: occupied

... initialized

Initializing position-dependent things.

Density initialized from atomic densities
Creating initial wave functions:
  14 bands from LCAO basis set

       .------------------------.  
      /|                        |  
     / |                        |  
    /  |                        |  
   /   |                        |  
  /    |                        |  
 *     |                        |  
 |     |      H                 |  
 |     |       C H              |  
 |     |     H   C  H           |  
 |     |                        |  
 |     |        H               |  
 |     .------------------------.  
 |    /                        /   
 |   /                        /    
 |  /                        /     
 | /                        /      
 |/                        /       
 *------------------------*        

Positions:
   0 C      5.031955    5.268031    4.559596    ( 0.0000,  0.0000,  1.0000)
   1 H      6.148886    5.268031    4.559596    ( 0.0000,  0.0000,  0.0000)
   2 H      4.689029    6.331026    4.559596    ( 0.0000,  0.0000,  0.0000)
   3 H      4.690041    4.797756    3.605805    ( 0.0000,  0.0000,  0.0000)
   4 C      4.492425    4.526322    5.750934    ( 0.0000,  0.0000,  0.0000)
   5 H      3.872914    5.197128    6.394195    ( 0.0000,  0.0000,  0.0000)
   6 H      3.851113    3.668974    5.432762    ( 0.0000,  0.0000,  0.0000)
   7 H      5.321506    4.119379    6.379126    ( 0.0000,  0.0000,  0.0000)

Unit cell:
           periodic     x           y           z      points  spacing
  1. axis:    no    10.000000    0.000000    0.000000    48     0.2083
  2. axis:    no     0.000000   10.000000    0.000000    48     0.2083
  3. axis:    no     0.000000    0.000000   10.000000    48     0.2083

  Lengths:  10.000000  10.000000  10.000000
  Angles:   90.000000  90.000000  90.000000

Effective grid spacing dv^(1/3) = 0.2083

                     log10-error:    total        iterations:
           time      wfs    density  energy       poisson  magmom
iter:   1  14:22:09                 -60.791000    1        +1.0666
iter:   2  14:22:24  -0.36  -0.66   -61.021976    1        +1.0200
iter:   3  14:22:39  -0.46  -0.66   -59.189448    1        +0.9943
iter:   4  14:22:55  -0.56  -0.79   -58.453390    1        +0.9976
iter:   5  14:23:10  -0.89  -0.92   -58.592634    1        +0.9991
iter:   6  14:23:22  -0.93  -1.15   -58.599755    1        +1.0002
iter:   7  14:23:37  -1.18  -1.57   -58.376745    1        +1.0002
iter:   8  14:23:49  -1.81  -1.55   -58.399592    1        +1.0001
iter:   9  14:24:05  -1.65  -1.54   -58.322444    1        +1.0000
iter:  10  14:24:19  -2.09  -1.42   -58.402338    1        +1.0000
iter:  11  14:24:35  -1.85  -1.61   -58.476166    1        +1.0000
iter:  12  14:24:51  -2.49  -1.80   -58.487453    1        +1.0000
iter:  13  14:25:04  -3.10  -1.81   -58.484051    1        +1.0000
iter:  14  14:25:20  -3.82  -1.85   -58.492778    1        +1.0000
iter:  15  14:25:36  -3.21  -1.87   -58.551127    1        +1.0000
iter:  16  14:25:51  -3.98  -1.96   -58.555422    1        +1.0000
iter:  17  14:26:06  -3.07  -1.97   -58.593518    1        +1.0000
iter:  18  14:26:21  -3.74  -2.15   -58.602875    1        +1.0000
iter:  19  14:26:36  -3.51  -2.17   -58.630664    1        +1.0000
iter:  20  14:26:49  -4.21  -2.25   -58.631066    1        +1.0000
iter:  21  14:27:04  -3.03  -2.26   -58.672356    1        +1.0000
iter:  22  14:27:20  -3.89  -2.65   -58.663778    1        +1.0000
iter:  23  14:27:36  -3.35  -2.58   -58.688527    1        +1.0000
iter:  24  14:27:51  -3.97  -2.82   -58.689169    1        +1.0000
iter:  25  14:28:05  -4.24  -2.98   -58.689232    1        +1.0000
iter:  26  14:28:20  -4.51  -2.99   -58.689852    1        +1.0000
iter:  27  14:28:36  -4.24  -3.02   -58.691424    1        +1.0000
iter:  28  14:28:52  -4.66  -3.09   -58.690598    1        +1.0000
iter:  29  14:29:07  -4.77  -3.12   -58.691346    1        +1.0000
iter:  30  14:29:21  -4.65  -3.24   -58.692058    1        +1.0000
iter:  31  14:29:36  -5.39  -3.33   -58.692010    1        +1.0000
iter:  32  14:29:50  -5.74  -3.33   -58.692039    1        +1.0000
iter:  33  14:30:05  -5.60  -3.32   -58.691961    1        +1.0000
iter:  34  14:30:19  -5.52  -3.30   -58.691645    1        +1.0000
iter:  35  14:30:35  -6.17  -3.31   -58.691687    1        +1.0000
iter:  36  14:30:49  -6.00  -3.33   -58.691671    1        +1.0000
iter:  37  14:31:04  -6.03  -3.35   -58.691775    1        +1.0000
iter:  38  14:31:19  -6.28  -3.36   -58.691843    1        +1.0000
iter:  39  14:31:35  -5.31  -3.37   -58.692244    1        +1.0000
iter:  40  14:31:50  -5.82  -3.64   -58.692308    1        +1.0000
iter:  41  14:32:05  -6.41  -3.82   -58.692313    1        +1.0000
iter:  42  14:32:20  -6.79  -3.87   -58.692306    1        +1.0000
iter:  43  14:32:34  -6.99  -3.86   -58.692297    1        +1.0000
iter:  44  14:32:49  -7.23  -3.84   -58.692292    1        +1.0000
iter:  45  14:33:05  -7.71  -3.85   -58.692293    1        +1.0000
iter:  46  14:33:20  -7.64  -3.86   -58.692299    1        +1.0000
iter:  47  14:33:35  -6.87  -3.88   -58.692315    1        +1.0000
iter:  48  14:33:51  -6.82  -4.09   -58.692320    1        +1.0000
iter:  49  14:34:04  -7.31  -4.28   -58.692319    1        +1.0000
iter:  50  14:34:19  -7.77  -4.26   -58.692319    1        +1.0000

Converged after 50 iterations.

Dipole moment: (-0.158196, -0.150235, 0.253182) |e|*Ang

Total magnetic moment: (0.000000, 0.000000, 1.000000)
Local magnetic moments:
   0 C  ( 0.000000,  0.000000, -0.085337)
   1 H  ( 0.000000,  0.000000,  0.022819)
   2 H  ( 0.000000,  0.000000,  0.022603)
   3 H  ( 0.000000,  0.000000,  0.022559)
   4 C  ( 0.000000,  0.000000,  0.024494)
   5 H  ( 0.000000,  0.000000, -0.000377)
   6 H  ( 0.000000,  0.000000, -0.000380)
   7 H  ( 0.000000,  0.000000, -0.000357)

Energy contributions relative to reference atoms: (reference = -1825.825323)

Kinetic:        +40.993493
Potential:      -53.256306
External:        +0.000000
XC:             -46.849965
Entropy (-ST):   -0.000078
Local:           +0.420499
--------------------------
Free energy:    -58.692358
Extrapolated:   -58.692319

Spin contamination: 0.122347 electrons
                   Up                     Down
 Band  Eigenvalues  Occupancy  Eigenvalues  Occupancy
    0    -22.39904    1.00000    -23.04368    1.00000
    1    -17.60130    1.00000    -17.68428    1.00000
    2    -13.97997    1.00000    -14.29774    1.00000
    3    -13.97192    1.00000    -14.28967    1.00000
    4    -12.48078    1.00000    -12.77680    1.00000
    5    -10.20295    1.00000    -10.20076    1.00000
    6    -10.19850    1.00000    -10.19578    1.00000
    7     -1.97085    0.99993     -1.38144    0.00000
    8     -0.98931    0.00004     -0.44622    0.00000
    9     -0.97411    0.00003     -0.44340    0.00000
   10     -0.39460    0.00000     -0.11190    0.00000
   11      0.27743    0.00000      1.19432    0.00000
   12      0.36741    0.00000      1.24268    0.00000
   13      0.99092    0.00000      1.38000    0.00000

Fermi levels: -1.49389, -7.26006

Timing:                              incl.     excl.
-----------------------------------------------------------
Hamiltonian:                         1.885     0.001   0.0% |
 Atomic:                             0.092     0.001   0.0% |
  XC Correction:                     0.091     0.091   0.0% |
 Calculate atomic Hamiltonians:      0.001     0.001   0.0% |
 Communicate:                        0.000     0.000   0.0% |
 Hartree integrate/restrict:         0.006     0.006   0.0% |
 Initialize Hamiltonian:             0.000     0.000   0.0% |
 Poisson:                            0.068     0.003   0.0% |
  Communicate from 1D:               0.012     0.012   0.0% |
  Communicate from 2D:               0.011     0.011   0.0% |
  Communicate to 1D:                 0.016     0.016   0.0% |
  Communicate to 2D:                 0.017     0.017   0.0% |
  FFT 1D:                            0.002     0.002   0.0% |
  FFT 2D:                            0.006     0.006   0.0% |
 XC 3D grid:                         1.717     1.717   0.2% |
 vbar:                               0.001     0.001   0.0% |
LCAO initialization:                 0.905     0.104   0.0% |
 LCAO eigensolver:                   0.640     0.000   0.0% |
  Calculate projections:             0.000     0.000   0.0% |
  DenseAtomicCorrection:             0.000     0.000   0.0% |
  Distribute overlap matrix:         0.000     0.000   0.0% |
  Orbital Layouts:                   0.632     0.632   0.1% |
  Potential matrix:                  0.007     0.007   0.0% |
 LCAO to grid:                       0.012     0.012   0.0% |
 Set positions (LCAO WFS):           0.149     0.036   0.0% |
  Basic WFS set positions:           0.000     0.000   0.0% |
  Basis functions set positions:     0.000     0.000   0.0% |
  P tci:                             0.005     0.005   0.0% |
  ST tci:                            0.001     0.001   0.0% |
  mktci:                             0.107     0.107   0.0% |
SCF-cycle:                         743.505     0.888   0.1% |
 Davidson:                         580.603   271.421  36.3% |--------------|
  Apply hamiltonian:                20.014    20.014   2.7% ||
  Subspace diag:                    39.373     0.013   0.0% |
   calc_h_matrix:                    2.300     0.199   0.0% |
    Apply hamiltonian:               2.102     2.102   0.3% |
   diagonalize:                     13.576    13.576   1.8% ||
   rotate_psi:                      23.484    23.484   3.1% ||
  calc. matrices:                   22.474    19.117   2.6% ||
   Apply hamiltonian:                3.357     3.357   0.4% |
  diagonalize:                     181.432   181.432  24.2% |---------|
  rotate_psi:                       45.889    45.889   6.1% |-|
 Density:                           56.853     0.001   0.0% |
  Atomic density matrices:           0.137     0.137   0.0% |
  Mix:                              56.554    56.554   7.6% |--|
  Multipole moments:                 0.080     0.080   0.0% |
  Pseudo density:                    0.081     0.080   0.0% |
   Symmetrize density:               0.001     0.001   0.0% |
 Hamiltonian:                      104.745     0.031   0.0% |
  Atomic:                            5.960     0.045   0.0% |
   XC Correction:                    5.915     5.915   0.8% |
  Calculate atomic Hamiltonians:     0.045     0.045   0.0% |
  Communicate:                       0.001     0.001   0.0% |
  Hartree integrate/restrict:        0.304     0.304   0.0% |
  Poisson:                           4.354     0.485   0.1% |
   Communicate from 1D:              0.711     0.711   0.1% |
   Communicate from 2D:              0.696     0.696   0.1% |
   Communicate to 1D:                1.030     1.030   0.1% |
   Communicate to 2D:                0.872     0.872   0.1% |
   FFT 1D:                           0.171     0.171   0.0% |
   FFT 2D:                           0.388     0.388   0.1% |
  XC 3D grid:                       93.987    93.987  12.6% |----|
  vbar:                              0.064     0.064   0.0% |
 Orthonormalize:                     0.416     0.000   0.0% |
  calc_s_matrix:                     0.003     0.003   0.0% |
  inverse-cholesky:                  0.152     0.152   0.0% |
  projections:                       0.033     0.033   0.0% |
  rotate_psi_s:                      0.228     0.228   0.0% |
Set symmetry:                        0.001     0.001   0.0% |
Other:                               2.323     2.323   0.3% |
-----------------------------------------------------------
Total:                                       748.618 100.0%

Memory usage: 278.09 MiB
Date: Thu Mar 17 14:34:20 2022
