
  ___ ___ ___ _ _ _  
 |   |   |_  | | | | 
 | | | | | . | | | | 
 |__ |  _|___|_____|  21.6.0
 |___|_|             

User:   singhk93@c023.curta.zedat.fu-berlin.de
Date:   Thu Mar 17 14:22:01 2022
Arch:   x86_64
Pid:    227564
Python: 3.9.5
gpaw:   /trinity/shared/easybuild/software/GPAW/21.6.0-foss-2021a/lib/python3.9/site-packages/gpaw
_gpaw:  /trinity/shared/easybuild/software/GPAW/21.6.0-foss-2021a/lib/python3.9/site-packages/
        _gpaw.cpython-39-x86_64-linux-gnu.so
ase:    /trinity/shared/easybuild/software/ASE/3.22.0-foss-2021a/lib/python3.9/site-packages/ase (version 3.22.0)
numpy:  /trinity/shared/easybuild/software/SciPy-bundle/2021.05-foss-2021a/lib/python3.9/site-packages/numpy (version 1.20.3)
scipy:  /trinity/shared/easybuild/software/SciPy-bundle/2021.05-foss-2021a/lib/python3.9/site-packages/scipy (version 1.6.3)
libxc:  5.1.5
units:  Angstrom and eV
cores: 4
OpenMP: False
OMP_NUM_THREADS: 1

Input parameters:
  charge: -1
  convergence: {energy: 0.001}
  eigensolver: {name: dav,
                niter: 3}
  h: 0.2
  mixer: {backend: pulay,
          beta: 0.02,
          method: difference,
          nmaxold: 3,
          weight: 100}
  occupations: {fixmagmom: True,
                name: fermi-dirac,
                width: 0.05}
  setups: {0: fch1s}
  spinpol: True
  xc: PBE

System changes: positions, numbers, cell, pbc, initial_charges, initial_magmoms 

Initialize ...

C-setup (1.0 core hole):
  name: Carbon
  id: c050d65acf0e07bc923b5bd334fffffc
  Z: 6.0
  valence: 4
  core: 1.0
  charge: 1.0
  file: ./C.fch1s.PBE
  compensation charges: gauss, rc=0.20, lmax=2
  cutoffs: 1.14(filt), 1.01(core),
  valence states:
                energy  radius
    2s(2.00)   -29.911   0.635
    2p(2.00)   -21.336   0.635
    *s          -2.700   0.635
    *p           5.875   0.635
    *d           0.000   0.635

  Using partial waves for C as LCAO basis

H-setup:
  name: Hydrogen
  id: d65de229564ff8ea4db303e23b6d1ecf
  Z: 1.0
  valence: 1
  core: 0
  charge: 0.0
  file: /trinity/shared/easybuild/software/GPAW-setups/0.9.20000/H.PBE.gz
  compensation charges: gauss, rc=0.15, lmax=2
  cutoffs: 0.85(filt), 0.53(core),
  valence states:
                energy  radius
    1s(1.00)    -6.494   0.476
    *s          20.717   0.476
    *p           0.000   0.476

  Using partial waves for H as LCAO basis

Reference energy: -773.216883

Spin-polarized calculation.
Magnetic moment: 1.000000

Convergence criteria:
  Maximum total energy change: 0.001 eV / electron
  Maximum integral of absolute density change: 0.0001 electrons
  Maximum integral of absolute eigenstate change: 4e-08 eV^2
  Maximum number of iterations: 333

Symmetries present (total): 1

  ( 1  0  0)
  ( 0  1  0)
  ( 0  0  1)

1 k-point (Gamma)
1 k-point in the irreducible part of the Brillouin zone
       k-points in crystal coordinates                weights
   0:     0.00000000    0.00000000    0.00000000          1/1

Wave functions: Uniform real-space grid
  Kinetic energy operator: 6*3+1=19 point O(h^6) finite-difference Laplacian
  ScaLapack parameters: grid=1x1, blocksize=None
  Wavefunction extrapolation:
    Improved wavefunction reuse through dual PAW basis 

Occupation numbers: <gpaw.occupations.FixMagneticMomentOccupationNumberCalculator object at 0x2aaaf8ed7460> 

Eigensolver
   Davidson(niter=3) 

Densities:
  Coarse grid: 48*48*48 grid
  Fine grid: 96*96*96 grid
  Total Charge: 0.000000 

Density mixing:
  Method: difference
  Backend: pulay
  Linear mixing parameter: 0.02
  Mixing with 3 old densities
  Damping of long wave oscillations: 100 

Hamiltonian:
  XC and Coulomb potentials evaluated on a 96*96*96 grid
  Using the PBE Exchange-Correlation functional
  Interpolation: tri-quintic (5. degree polynomial)
  Poisson solver: FastPoissonSolver using
    Stencil: 6*3+1=19 point O(h^6) finite-difference Laplacian
    FFT axes: []
    FST axes: [0, 1, 2]
 

XC parameters: PBE with 2 nearest neighbor stencil

Memory estimate:
  Process memory now: 231.61 MiB
  Calculator: 19.97 MiB
    Density: 9.22 MiB
      Arrays: 6.97 MiB
      Localized functions: 0.35 MiB
      Mixer: 1.90 MiB
    Hamiltonian: 5.21 MiB
      Arrays: 5.18 MiB
      XC: 0.00 MiB
      Poisson: 0.00 MiB
      vbar: 0.03 MiB
    Wavefunctions: 5.53 MiB
      Arrays psit_nG: 3.04 MiB
      Eigensolver: 2.47 MiB
      Projections: 0.00 MiB
      Projectors: 0.03 MiB

Total number of cores used: 4
Domain decomposition: 2 x 2 x 1

Number of atoms: 5
Number of atomic orbitals: 8
Number of bands in calculation: 8
Number of valence electrons: 9
Bands to converge: occupied

... initialized

Initializing position-dependent things.

Density initialized from atomic densities
Creating initial wave functions:
  8 bands from LCAO basis set

       .------------------------.  
      /|                        |  
     / |                        |  
    /  |                        |  
   /   |                        |  
  /    |                        |  
 *     |                        |  
 |     |                        |  
 |     |      H                 |  
 |     |       C  H             |  
 |     |                        |  
 |     |      H                 |  
 |     .------------------------.  
 |    /                        /   
 |   /                        /    
 |  /                        /     
 | /                        /      
 |/                        /       
 *------------------------*        

Positions:
   0 C      4.629457    4.737996    4.999983    ( 0.0000,  0.0000,  1.0000)
   1 H      5.741099    4.737996    4.999983    ( 0.0000,  0.0000,  0.0000)
   2 H      4.258931    5.786048    4.999983    ( 0.0000,  0.0000,  0.0000)
   3 H      4.258901    4.213951    4.092355    ( 0.0000,  0.0000,  0.0000)
   4 H      4.258928    4.213989    5.907645    ( 0.0000,  0.0000,  0.0000)

Unit cell:
           periodic     x           y           z      points  spacing
  1. axis:    no    10.000000    0.000000    0.000000    48     0.2083
  2. axis:    no     0.000000   10.000000    0.000000    48     0.2083
  3. axis:    no     0.000000    0.000000   10.000000    48     0.2083

  Lengths:  10.000000  10.000000  10.000000
  Angles:   90.000000  90.000000  90.000000

Effective grid spacing dv^(1/3) = 0.2083

                     log10-error:    total        iterations:
           time      wfs    density  energy       poisson  magmom
iter:   1  14:22:14                 -42.137697    1        +1.1151
iter:   2  14:22:23  +0.00  -0.75   -42.622969    1        +1.0345
iter:   3  14:22:32  -0.55  -0.74   -42.376360    1        +0.9891
iter:   4  14:22:43  -0.94  -0.73   -42.432253    1        +0.9956
iter:   5  14:22:53  -0.82  -0.77   -42.599371    1        +1.0001
iter:   6  14:23:02  -1.78  -1.17   -42.712657    1        +0.9996
iter:   7  14:23:12  -1.28  -1.02   -42.559612    1        +1.0000
iter:   8  14:23:21  -2.34  -1.44   -42.571584    1        +1.0000
iter:   9  14:23:32  -2.74  -1.44   -42.581650    1        +1.0000
iter:  10  14:23:43  -3.06  -1.48   -42.572947    1        +1.0000
iter:  11  14:23:52  -3.24  -1.51   -42.567902    1        +1.0000
iter:  12  14:24:03  -3.21  -1.58   -42.567071    1        +1.0000
iter:  13  14:24:13  -3.07  -1.61   -42.569402    1        +1.0000
iter:  14  14:24:24  -3.46  -1.70   -42.568870    1        +1.0000
iter:  15  14:24:34  -3.31  -1.71   -42.568397    1        +1.0000
iter:  16  14:24:44  -3.23  -1.70   -42.566100    1        +1.0000
iter:  17  14:24:54  -3.45  -1.68   -42.564603    1        +1.0000
iter:  18  14:25:04  -3.67  -1.69   -42.563595    1        +1.0000
iter:  19  14:25:14  -3.94  -1.72   -42.563409    1        +1.0000
iter:  20  14:25:24  -4.16  -1.76   -42.563678    1        +1.0000
iter:  21  14:25:34  -3.99  -1.80   -42.564274    1        +1.0000
iter:  22  14:25:45  -4.12  -1.84   -42.564293    1        +1.0000
iter:  23  14:25:55  -3.62  -1.85   -42.563190    1        +1.0000
iter:  24  14:26:06  -3.84  -1.85   -42.562668    1        +1.0000
iter:  25  14:26:16  -3.79  -1.85   -42.562009    1        +1.0000
iter:  26  14:26:26  -4.25  -1.87   -42.561907    1        +1.0000
iter:  27  14:26:36  -4.46  -1.89   -42.562119    1        +1.0000
iter:  28  14:26:47  -4.81  -1.95   -42.562185    1        +1.0000
iter:  29  14:26:57  -3.70  -1.97   -42.561927    1        +1.0000
iter:  30  14:27:08  -3.89  -2.06   -42.561613    1        +1.0000
iter:  31  14:27:18  -3.18  -2.14   -42.561063    1        +1.0000
iter:  32  14:27:28  -3.76  -2.25   -42.560990    1        +1.0000
iter:  33  14:27:37  -3.79  -2.27   -42.561737    1        +1.0000
iter:  34  14:27:47  -3.93  -2.38   -42.561847    1        +1.0000
iter:  35  14:27:57  -4.50  -2.38   -42.561893    1        +1.0000
iter:  36  14:28:07  -3.84  -2.39   -42.562712    1        +1.0000
iter:  37  14:28:17  -4.19  -2.72   -42.562630    1        +1.0000
iter:  38  14:28:28  -4.63  -2.70   -42.562664    1        +1.0000
iter:  39  14:28:37  -4.44  -2.71   -42.561721    1        +1.0000
iter:  40  14:28:46  -4.65  -3.01   -42.561513    1        +1.0000
iter:  41  14:28:55  -5.09  -3.08   -42.561574    1        +1.0000
iter:  42  14:29:05  -5.52  -3.11   -42.561739    1        +1.0000
iter:  43  14:29:16  -5.77  -3.14   -42.561836    1        +1.0000
iter:  44  14:29:26  -4.66  -3.16   -42.562741    1        +1.0000
iter:  45  14:29:36  -5.59  -3.87   -42.562749    1        +1.0000
iter:  46  14:29:45  -5.58  -3.89   -42.562827    1        +1.0000
iter:  47  14:29:56  -6.20  -3.84   -42.562798    1        +1.0000
iter:  48  14:30:06  -6.99  -3.82   -42.562814    1        +1.0000
iter:  49  14:30:17  -6.46  -3.88   -42.562777    1        +1.0000
iter:  50  14:30:27  -7.40  -3.76   -42.562791    1        +1.0000
iter:  51  14:30:38  -6.17  -3.79   -42.562851    1        +1.0000
iter:  52  14:30:48  -6.08  -3.99   -42.562798    1        +1.0000
iter:  53  14:30:58  -6.63  -3.80   -42.562812    1        +1.0000
iter:  54  14:31:08  -7.32  -3.83   -42.562812    1        +1.0000
iter:  55  14:31:19  -7.62  -3.82   -42.562817    1        +1.0000
iter:  56  14:31:29  -6.86  -3.83   -42.562787    1        +1.0000
iter:  57  14:31:38  -7.56  -3.76   -42.562785    1        +1.0000
iter:  58  14:31:49  -7.42  -3.75   -42.562801    1        +1.0000
iter:  59  14:31:58  -6.32  -3.79   -42.562847    1        +1.0000
iter:  60  14:32:08  -6.58  -3.90   -42.562837    1        +1.0000
iter:  61  14:32:18  -7.11  -3.91   -42.562833    1        +1.0000
iter:  62  14:32:29  -6.94  -3.86   -42.562819    1        +1.0000
iter:  63  14:32:40  -7.48  -3.83   -42.562816    1        +1.0000
iter:  64  14:32:50  -7.49  -3.82   -42.562807    1        +1.0000
iter:  65  14:32:59  -7.92  -3.81   -42.562808    1        +1.0000
iter:  66  14:33:09  -6.44  -3.80   -42.562843    1        +1.0000
iter:  67  14:33:19  -6.94  -3.99   -42.562823    1        +1.0000
iter:  68  14:33:30  -7.87  -3.90   -42.562823    1        +1.0000
iter:  69  14:33:39  -8.47  -3.91   -42.562823    1        +1.0000
iter:  70  14:33:49  -7.34  -3.90   -42.562813    1        +1.0000
iter:  71  14:33:59  -8.01  -3.89   -42.562812    1        +1.0000
iter:  72  14:34:09  -7.94  -3.88   -42.562819    1        +1.0000
iter:  73  14:34:20  -8.20  -3.90   -42.562814    1        +1.0000
iter:  74  14:34:30  -8.65  -3.90   -42.562814    1        +1.0000
iter:  75  14:34:41  -8.93  -3.90   -42.562815    1        +1.0000
iter:  76  14:34:51  -8.46  -3.90   -42.562811    1        +1.0000
iter:  77  14:35:02  -8.13  -3.89   -42.562816    1        +1.0000
iter:  78  14:35:12  -8.54  -3.90   -42.562818    1        +1.0000
iter:  79  14:35:22  -9.35  -3.91   -42.562818    1        +1.0000
iter:  80  14:35:33  -8.58  -3.91   -42.562817    1        +1.0000
iter:  81  14:35:43  -7.44  -3.92   -42.562829    1        +1.0000
iter:  82  14:35:53  -8.10  -3.97   -42.562829    1        +1.0000
iter:  83  14:36:03  -8.70  -4.00   -42.562829    1        +1.0000

Converged after 83 iterations.

Dipole moment: (-0.071134, -0.049115, -0.000015) |e|*Ang

Total magnetic moment: (0.000000, 0.000000, 1.000000)
Local magnetic moments:
   0 C  ( 0.000000,  0.000000, -0.084596)
   1 H  ( 0.000000,  0.000000,  0.020922)
   2 H  ( 0.000000,  0.000000,  0.020873)
   3 H  ( 0.000000,  0.000000,  0.020963)
   4 H  ( 0.000000,  0.000000,  0.020962)

Energy contributions relative to reference atoms: (reference = -773.216883)

Kinetic:        +26.495033
Potential:      -37.344097
External:        +0.000000
XC:             -31.991010
Entropy (-ST):   -0.000001
Local:           +0.277247
--------------------------
Free energy:    -42.562829
Extrapolated:   -42.562829

Spin contamination: 0.099628 electrons
                   Up                     Down
 Band  Eigenvalues  Occupancy  Eigenvalues  Occupancy
    0    -21.81996    1.00000    -22.54252    1.00000
    1    -13.84226    1.00000    -14.18673    1.00000
    2    -13.83875    1.00000    -14.18150    1.00000
    3    -13.83040    1.00000    -14.17335    1.00000
    4     -2.22614    1.00000     -1.59592    0.00000
    5     -0.77448    0.00000     -0.11523    0.00000
    6     -0.75296    0.00000     -0.10734    0.00000
    7     -0.74067    0.00000     -0.10221    0.00000

Fermi levels: -1.51955, -8.24048

Timing:                              incl.     excl.
-----------------------------------------------------------
Hamiltonian:                         2.110     0.001   0.0% |
 Atomic:                             0.081     0.006   0.0% |
  XC Correction:                     0.075     0.075   0.0% |
 Calculate atomic Hamiltonians:      0.001     0.001   0.0% |
 Communicate:                        0.000     0.000   0.0% |
 Hartree integrate/restrict:         0.006     0.006   0.0% |
 Initialize Hamiltonian:             0.000     0.000   0.0% |
 Poisson:                            0.090     0.010   0.0% |
  Communicate from 1D:               0.014     0.014   0.0% |
  Communicate from 2D:               0.014     0.014   0.0% |
  Communicate to 1D:                 0.020     0.020   0.0% |
  Communicate to 2D:                 0.021     0.021   0.0% |
  FFT 1D:                            0.003     0.003   0.0% |
  FFT 2D:                            0.007     0.007   0.0% |
 XC 3D grid:                         1.930     1.930   0.2% |
 vbar:                               0.001     0.001   0.0% |
LCAO initialization:                 0.381     0.047   0.0% |
 LCAO eigensolver:                   0.157     0.001   0.0% |
  Calculate projections:             0.000     0.000   0.0% |
  DenseAtomicCorrection:             0.000     0.000   0.0% |
  Distribute overlap matrix:         0.000     0.000   0.0% |
  Orbital Layouts:                   0.152     0.152   0.0% |
  Potential matrix:                  0.003     0.003   0.0% |
 LCAO to grid:                       0.004     0.004   0.0% |
 Set positions (LCAO WFS):           0.173     0.049   0.0% |
  Basic WFS set positions:           0.000     0.000   0.0% |
  Basis functions set positions:     0.000     0.000   0.0% |
  P tci:                             0.004     0.004   0.0% |
  ST tci:                            0.001     0.001   0.0% |
  mktci:                             0.119     0.119   0.0% |
SCF-cycle:                         837.066     2.207   0.3% |
 Davidson:                         562.892   288.561  34.3% |-------------|
  Apply hamiltonian:                20.750    20.750   2.5% ||
  Subspace diag:                    41.147     0.052   0.0% |
   calc_h_matrix:                    4.207     0.195   0.0% |
    Apply hamiltonian:               4.012     4.012   0.5% |
   diagonalize:                      7.655     7.655   0.9% |
   rotate_psi:                      29.233    29.233   3.5% ||
  calc. matrices:                    5.145     1.658   0.2% |
   Apply hamiltonian:                3.487     3.487   0.4% |
  diagonalize:                     125.773   125.773  14.9% |-----|
  rotate_psi:                       81.517    81.517   9.7% |---|
 Density:                           99.965     0.002   0.0% |
  Atomic density matrices:           0.263     0.263   0.0% |
  Mix:                              99.261    99.261  11.8% |----|
  Multipole moments:                 0.363     0.363   0.0% |
  Pseudo density:                    0.077     0.075   0.0% |
   Symmetrize density:               0.001     0.001   0.0% |
 Hamiltonian:                      171.893     0.047   0.0% |
  Atomic:                            7.126     0.910   0.1% |
   XC Correction:                    6.216     6.216   0.7% |
  Calculate atomic Hamiltonians:     0.059     0.059   0.0% |
  Communicate:                       0.002     0.002   0.0% |
  Hartree integrate/restrict:        0.483     0.483   0.1% |
  Poisson:                           7.180     0.725   0.1% |
   Communicate from 1D:              1.180     1.180   0.1% |
   Communicate from 2D:              1.167     1.167   0.1% |
   Communicate to 1D:                1.697     1.697   0.2% |
   Communicate to 2D:                1.540     1.540   0.2% |
   FFT 1D:                           0.269     0.269   0.0% |
   FFT 2D:                           0.601     0.601   0.1% |
  XC 3D grid:                      156.900   156.900  18.6% |------|
  vbar:                              0.095     0.095   0.0% |
 Orthonormalize:                     0.109     0.000   0.0% |
  calc_s_matrix:                     0.001     0.001   0.0% |
  inverse-cholesky:                  0.009     0.009   0.0% |
  projections:                       0.011     0.011   0.0% |
  rotate_psi_s:                      0.087     0.087   0.0% |
Set symmetry:                        0.001     0.001   0.0% |
Other:                               2.166     2.166   0.3% |
-----------------------------------------------------------
Total:                                       841.724 100.0%

Memory usage: 271.17 MiB
Date: Thu Mar 17 14:36:03 2022
